 operating system is UNIX !
 hostname is         aal10

 force(aal10) : TURBOMOLE V6.1 22 Sep 2009 at 17:26:03
 Copyright (C) 2009 TURBOMOLE GmbH, Karlsruhe


    2010-01-25 15:57:03.304 



                             T U R B O M O L E   

                          a o f o r c e - program

                        using direct algorithms for

                       SCF level calculations of
                         * harmonic force constants
                         * hyperpolarizabilities
                         * IR and RAMAN intensities

                       DFT level calculations of
                         * harmonic force constants
                         * IR intensities
                                                   
       Stephan Boecker, Peter Deglmann, Filipp Furche and Marco Haeser
                          Quantum Chemistry Group
                          Universitaet  Karlsruhe
                                   Germany

 
 
 
 
     References :
 
       RI-J implementation:
         Peter Deglmann, Klaus May, Filipp Furche, Reinhart Ahlrichs
                 Chem. Phys. Lett. 384:103 (2004)
 
       Efficiency, technical details:
         Peter Deglmann, Filipp Furche, Reinhart Ahlrichs
                 Chem. Phys. Lett. 362:511 (2002)
 
       Search of lowest eigenvalues by iterative diagonalization:
         Peter Deglmann, Filipp Furche
                 J. Chem. Phys. 117:9535 (2002)
 
 

   *************************************************************************
   gauche-pyrrole-up                                                        
   *************************************************************************




              +--------------------------------------------------+
              | Atomic coordinate, charge and isotop information |
              +--------------------------------------------------+


              atomic coordinates              atom shells charge pseudo isotop
    -4.00996814    0.40353314    1.67561109    c      9    6.000    0     0
    -2.35421794    0.35870245    3.70541019    n      9    7.000    0     0
     0.09188627    0.16310790    2.81742710    c      9    6.000    0     0
    -0.05018437    0.07498579    0.12377588    c      9    6.000    0     0
    -2.68515450    0.23906520   -0.56469880    c      9    6.000    0     0
     2.39185984    0.06231621    4.11885672    c      9    6.000    0     0
     4.59131571   -0.13140862    2.68576235    c      9    6.000    0     0
     4.50153861   -0.21892985    0.02202819    c      9    6.000    0     0
     2.21056777   -0.11913015   -1.26527811    c      9    6.000    0     0
    -3.76779821    0.12912215   -3.17639740    c      9    6.000    0     0
    -3.85412493   -2.57930896   -4.29487373    c      9    6.000    0     0
    -5.42883493   -4.40796933   -2.94861194    n      9    7.000    0     0
     2.46787712    0.13232210    6.18032770    h      4    1.000    0     0
     6.41694226   -0.21571606    3.64212595    h      4    1.000    0     0
     6.26349113   -0.36877982   -1.03986142    h      4    1.000    0     0
     2.17037985   -0.18824034   -3.32755142    h      4    1.000    0     0
    -2.85815331    0.49777647    5.54600822    h      4    1.000    0     0
    -6.03203590    0.58610335    1.98756646    h      4    1.000    0     0
    -2.65358524    1.34288309   -4.45758924    h      4    1.000    0     0
    -5.70316835    0.90507831   -3.16813064    h      4    1.000    0     0
    -1.92001674   -3.34516809   -4.37705367    h      4    1.000    0     0
    -4.53006080   -2.46858700   -6.26158686    h      4    1.000    0     0
    -7.26464439   -3.80114879   -2.90572436    h      4    1.000    0     0
    -4.84969705   -4.53127130   -1.10690661    h      4    1.000    0     0
 

     center of nuclear mass  :   -0.84023032   -0.57423795    0.16831979

     center of nuclear charge:   -0.88900481   -0.60069185    0.10305223


              +--------------------------------------------------+
              |               basis set information              |
              +--------------------------------------------------+


              we will work with the  1s 3p 5d  7f  9g ... basis set
              ...i.e. with spherical basis functions...


   type   atoms  prim   cont   basis
   ---------------------------------------------------------------------------
    c       10     34     19   TZVP   [5s3p1d|11s6p1d]
    n        2     34     19   TZVP   [5s3p1d|11s6p1d]
    h       12      8      6   TZVP   [3s1p|5s1p]
   ---------------------------------------------------------------------------
   total:   24    504    300
   ---------------------------------------------------------------------------

   total number of primitive shells          :   42
   total number of contracted shells         :  156
   total number of cartesian basis functions :  312
   total number of SCF-basis functions       :  300

 
             FOUND RI-J FLAG !
 

 NOTE: THIS IS A PRELIMINARY IMPLEMENTATION. THE RI APPROXIMATION IS
       PRESENTLY USED FOR CPKS CONTRIBUTIONS TO THE HESSIAN ONLY! SEE
       MANUAL FOR FURTHER DETAILS.

  
 AUXILIARY BASIS SET information:

   we will work with the  1s 3p 5d  7f  9g 11h 13i auxiliary basis set
   ...i.e. with spherical basis functions...

   type   atoms  prim   cont   basis
   ---------------------------------------------------------------------------
    c       10     40     38   TZVP   [7s3p3d1f|9s3p3d1f]
    n        2     40     38   TZVP   [7s3p3d1f|9s3p3d1f]
    h       12     10      9   TZVP   [3s2p|4s2p]
   ---------------------------------------------------------------------------
   total:   24    600    564
   ---------------------------------------------------------------------------

   total number of primitive shells          :   38
   total number of contracted shells         :  228
   total number of cartesian basis functions :  636
   total number of SCF-basis functions       :  564


 symmetry group of the molecule :   c1 

 the group has the following generators :
   c1(z)

    1 symmetry operations found

 there are 1 real representations :   a   

 maximum number of shells which are related by symmetry :  1


 determining totally symmetric integral contributions 
    - equivalent to irreducible tensor elements - 
 which can be formed within each triple of representations :

             representation triple      contributions

              a     a     a               1

    mo occupation :
   irrep   mo's   occupied
    a      300       43
 
 number of basis functions   :          300
 number of occupied orbitals :           43
 
  MOs are in ASCII format !


 reading orbital data $scfmo  from file mos . 

 orbital characterization : scfconv=6
 

         --------------------------------------------------------------
                   checking mo's by calculating trace(D*S)

              number of electrons : 
                 from trace(D*S)         :   85.999999991330
                 from occupation numbers :   86.000000000000

              molecular charge           :    0.000000000000
         --------------------------------------------------------------

 time elapsed for calculating density matrices :   0.008 sec

 number of non-frozen orbitals          :   300
 number of non-frozen occupied orbitals :    43
 Blocking parameters 
 shells:
    index      start shell   last shell  start bf    last bf    #bf 
       1             1         120             1        168    168
       2           121         156           169        312    144
  
           ----------------------
               RI - INFORMATION
           ----------------------

 biggest AO integral is expected to be     6.862573055

 cpu time for 2e-integral bound :      0.30 sec


 Threshold for integral neglect (rithr2):   0.80E-10
 Threshold for integral neglect (rithr1):   0.80E-10

 Contributions to RI integral batches: 
  neglected integral batches:        2203
  direct contribution:                  0
  memory contribution:       10043
 Core memory available (ricore):               700 MiB
 Core memory needed for (P|Q) and Cholesky:      3 MiB
 Core memory used for integrals:               198 MiB
 
 ****************************************
 Memory allocated for RIDFT: 200 MiB
 ****************************************
 
  
           ------------------
           density functional
           ------------------
 PBE functional
 exchange:    LDA + PBE
 correlation: LDA (PW) + PBE
 iterations will be done with small grid
  
 spherical integration : Lebedev's spherical grid
 spherical gridsize    :           3
    i.e. gridpoints    :         302
 value for diffuse not defined
 radial integration    : Chebyshev 2nd kind (scaling 3)
 radial gridsize       :           3
 integration cells     :          24
 partition function    : becke
 partition sharpness   :           3
  
 
 Derivatives of quadrature weights will be included
 
          Overall gridpoints after grid construction =        114508
 Ordering of quadrature gridpoints disabled.
 
 
 
 
 OCCUPIED-OCCUPIED TENSOR SPACES :

          IRREP   tensor space dimension   number of roots

           a              1849                  66
 
 OCCUPIED-VIRTUAL TENSOR SPACES :

          IRREP   tensor space dimension   number of roots

           a             11051                  66
 
 
 
 
 CONSTRUCTING integral bounds

 setting up bound for integral derivative estimation

 increment for numerical differentiation : 0.00050000
 
 machine precision:   2.220446049250313E-016

 integral neglect threshold       :  0.10E-09
 integral storage threshold THIZE :  0.10E-04
 integral storage threshold THIME :         5

 
 
 
 PREPARING NUMERICAL INTEGRATION
 
 Remaining core memory for DFT =         152 MB
 
 Memory needed per atom    =        1144 KiB
 
     i. e.          24 atoms per loop

 Calculating ground state density on molecular grid

 Integral of ground state density: N =   85.99983835087195    


 
 
 CONSTRUCTING first deriv. of <mu|x,y,z|nu> -> Dip. deriv.
  dipole integral derivatives will be neglected if
  expon. factor <0.160256E-10
      ...terminated. cpu:       0.03       wall:       0.03
 
 
 
 
 CONSTRUCTING first deriv. of  <mu|nu>
                               <mu|h|nu>    -> RHS
              second deriv. of <mu|nu>      -> Hessian
                               <mu|h|nu>    -> Hessian
                               nucl. rep.   -> Hessian
     integrals are neglected if expon. factor <  1.000000000000000E-012
      ...terminated. cpu:       2.23       wall:       2.23
 
 
 
 
 CONSTRUCTING second deriv. of 2e energy    -> Hessian
   treating Coulomb (and exchange) contribution
     integrals will be neglected if total contribution <  1.602564102564102E-008
      ...terminated. cpu:     503.61       wall:     503.62
   treating exchange-correlation contribution
      ...terminated. cpu:     199.41       wall:     199.40
 
 
 
 
 CONSTRUCTING S(i,j)xi
      ...terminated. cpu:       0.02       wall:       0.02
 
 
 
 
 CONSTRUCTING <i|x,y,z|j>*S(i,j)xi          -> Dip. deriv.
      ...terminated. cpu:       0.02       wall:       0.02
 
 
 
 
 CONSTRUCTING epsilon(i)*S(i,j)xi*S(i,j)chi -> Hessian
      ...terminated. cpu:       0.00       wall:       0.00
 
 
 
 
 CONSTRUCTING G(a,i)[S(k,l)xi]              -> RHS
              G(i,j)[S(k,l)xi]*S(i,j)chi    -> Hessian
 
         Maximum core memory set to          200 MB
         This corresponds to         266 vectors in CAO basis
      ...terminated. cpu:     265.51       wall:     265.51
 
 
 
 
 CONSTRUCTING G(mu,nu)[D(kap,lam)]xi
 
          Maximum core memory set to          200 MB
          Atoms treated simultaneously :          24
      ...terminated. cpu:     440.82       wall:     440.81
 
 
 
 
 CONSTRUCTING F(a,i)xi                      -> RHS
              F(i,j)xi*S(i,j)chi            -> Hessian
 
        Maximum core memory set to         200 MB
        This corresponds to         437 vectors in CAO basis
      ...terminated. cpu:       1.33       wall:       1.33
 
 
 
 
 CONSTRUCTING epsilon(i)*S(a,i)xi           -> RHS
      ...terminated. cpu:       0.22       wall:       0.21
 
 
 
 
 SOLVING CPHF equations
 
 Residuum convergence criterium   :  1.000000000000000E-005
 
 Maximum number of Davidson iterations set to          25
  Switching to small grid
        preparing numerical integration ....
          Overall gridpoints after grid construction =         30826

 Calculating ground state density on molecular grid

 Integral of ground state density: N =   85.99818691351184    




                       Block Davidson iteration


 total number of roots to be determined:  66


 maximum core memory set to   200 MB,
 corresponding to      264 vectors in CAO basis


 maximum number of simultaneously treated vectors (including degeneracy):  66


 Iteration IRREP Converged      Max. Euclidean
                 roots          residual norm

    1       a        0        9.429600828625734D-02
 
    2       a        0        8.748233724315074D-03
 
    3       a        0        5.116292420598559D-04
 
    4       a       59        2.052968008884157D-05
 
    5       a       66        8.751081607680493D-06
 

 converged!

  Switching to fine grid
        preparing numerical integration ....
          Overall gridpoints after grid construction =        114508

 Calculating ground state density on molecular grid

 Integral of ground state density: N =   85.99983835087085    



 Iteration IRREP Converged      Max. Euclidean
                 roots          residual norm

    6       a        0        1.476979846060414D-04
 

 NOTE: Residual norms are larger than 1.00D-05 due to mgrid option!

      ...terminated. cpu:     569.05       wall:     569.06
 
 
 
 
 CONSTRUCTING <a|x,y,z|i>*U(a,i)xi          -> Dip. deriv.
      ...terminated. cpu:       0.04       wall:       0.03
 
 
 
 
 CONSTRUCTING RHS(a,i)xi*U(a,i)chi          -> Hessian
      ...terminated. cpu:       0.03       wall:       0.03
 
 
 
 

            -----------------------
            permanent dipole moment
            -----------------------

                                   x                y                z
    electronic part       :   75.8770162474    52.1950763048    -8.0041965812
     nuclear   part       :  -76.4544132552   -51.6594993891     8.8624915616
     total                :   -0.5773970078     0.5355769156     0.8582949804

 with reference to the point :   0.0000000        0.0000000        0.0000000
 (given in atomic units)
    | dipole |       :    2.9608026876  debye


 keyword $dipgrad missing in file <control>

   ***  dipole moment & cartesian dipole gradients written onto
        $dipole, $dipgrad,  file=<control>  ***

             -----------------------------------
             rotational and vibrational analysis
             -----------------------------------


            ==============================================================
            ATOMIC WEIGHTS (average over the natural occurance of isotops)
            ==============================================================
            ('*' denotes special isotop !)
              1     c                12.01115
              2     n                14.00670
              3     c                12.01115
              4     c                12.01115
              5     c                12.01115
              6     c                12.01115
              7     c                12.01115
              8     c                12.01115
              9     c                12.01115
             10     c                12.01115
             11     c                12.01115
             12     n                14.00670
             13     h                 1.00797
             14     h                 1.00797
             15     h                 1.00797
             16     h                 1.00797
             17     h                 1.00797
             18     h                 1.00797
             19     h                 1.00797
             20     h                 1.00797
             21     h                 1.00797
             22     h                 1.00797
             23     h                 1.00797
             24     h                 1.00797

          -------------------------------------------------
          CARTESIAN FORCE CONSTANT MATRIX (hartree/bohr**2)
         (translational & rotational space projected out)
          -------------------------------------------------

   ATOM              1 c                           2 n 
                  dx        dy        dz        dx        dy        dz
   1 c     dx  0.7823911
           dy -0.0566514 0.1058448
           dz -0.0805804 0.0251752 0.5998509
   2 n     dx -0.1779720 0.0088734-0.0873585 0.5935430
           dy  0.0068866-0.0386592-0.0019207-0.0432298 0.0571451
           dz -0.0890732 0.0002066-0.2151956-0.0749742 0.0444004 0.8733701
   3 c     dx -0.0818302 0.0042264-0.0311741-0.2541619 0.0170007 0.0498488
           dy  0.0059135 0.0087874 0.0022064 0.0155050-0.0447000-0.0075118
           dz -0.0150787 0.0011515 0.0055767 0.0619624-0.0086928-0.1383479
   4 c     dx -0.0515074 0.0061200 0.0568064-0.0227514 0.0033073 0.0156520
           dy  0.0046077 0.0089986-0.0040538 0.0038183 0.0087956-0.0029748
           dz  0.0173904-0.0018355 0.0059251 0.0390099-0.0044178-0.0466217
   5 c     dx -0.1684207 0.0126372 0.1132071 0.0045946 0.0002315 0.0068519
           dy  0.0135130-0.0566746-0.0172804 0.0004927 0.0129838-0.0034948
           dz  0.1221134-0.0191218-0.2950836-0.0132777-0.0020047-0.0742449
   6 c     dx  0.0065019 0.0001974 0.0041454-0.0449986 0.0021931-0.0065350
           dy -0.0001188 0.0022466-0.0003900 0.0033295-0.0023624 0.0012344
           dz  0.0056743-0.0004972-0.0018195 0.0120398-0.0000791 0.0185002
   7 c     dx -0.0057734 0.0002155-0.0010909 0.0081680-0.0003677-0.0072067
           dy  0.0005389 0.0001645-0.0002373-0.0004601 0.0053891 0.0003808
           dz  0.0037848-0.0003057-0.0081697-0.0079438 0.0002881 0.0047233
   8 c     dx -0.0024529 0.0005044 0.0095230-0.0046659 0.0001490-0.0043366
           dy -0.0000572 0.0007958-0.0004501 0.0005636-0.0009202 0.0000744
           dz -0.0054979 0.0003966 0.0072578 0.0061814-0.0004488-0.0071904
   9 c     dx  0.0011312-0.0003828-0.0190247 0.0032993-0.0000902 0.0047456
           dy  0.0000289 0.0027373 0.0010390-0.0002562 0.0011743-0.0004176
           dz -0.0050142 0.0003915 0.0010038-0.0027466-0.0002135-0.0050689
  10 c     dx  0.0109131 0.0005510 0.0091660-0.0003118 0.0014093 0.0060531
           dy  0.0006865 0.0005804 0.0004150-0.0019986 0.0050003-0.0026784
           dz -0.0085258 0.0013290-0.0244108 0.0024039-0.0006343-0.0011140
  11 c     dx -0.0007627-0.0009112 0.0016811-0.0006381-0.0002204-0.0006293
           dy -0.0018869-0.0024744 0.0013617 0.0018667-0.0004362 0.0032507
           dz -0.0018460-0.0007327 0.0005356-0.0010676 0.0011839-0.0020115
  12 n     dx  0.0004093 0.0007495 0.0004092-0.0002505 0.0001049-0.0008075
           dy  0.0003207 0.0007581 0.0010927-0.0009840-0.0001441-0.0016135
           dz -0.0005310-0.0015744 0.0014987-0.0001819 0.0001144 0.0002834
  13 h     dx -0.0001439-0.0000432-0.0006474 0.0025891-0.0003103 0.0009434
           dy -0.0000421-0.0004233 0.0000367-0.0003418-0.0023741 0.0001257
           dz -0.0006704 0.0000379-0.0005888 0.0006231 0.0001008 0.0016431
  14 h     dx -0.0002643 0.0000365 0.0006700-0.0009793 0.0000969-0.0013058
           dy  0.0000343-0.0001579-0.0000183 0.0001384 0.0012751 0.0000534
           dz  0.0002300-0.0000215-0.0003298 0.0006198-0.0000555 0.0009759
  15 h     dx -0.0006123-0.0000139-0.0003754 0.0002829-0.0000235 0.0001468
           dy -0.0000124-0.0006617 0.0000399-0.0000276-0.0002008 0.0000283
           dz -0.0002231 0.0000556 0.0000228 0.0001086 0.0000053 0.0001264
  16 h     dx  0.0004180-0.0000069 0.0002763-0.0001242 0.0000762 0.0015440
           dy  0.0000308-0.0000555 0.0000378-0.0000867-0.0001713-0.0001190
           dz  0.0000535-0.0000221-0.0004908 0.0002243-0.0000208-0.0008006
  17 h     dx  0.0138484-0.0027793-0.0185191-0.0928268 0.0123916 0.0952166
           dy -0.0013613-0.0079271 0.0014810 0.0128477 0.0012469-0.0307212
           dz  0.0102801-0.0011962-0.0131082 0.0940626-0.0294954-0.4128344
  18 h     dx -0.3261244 0.0275361 0.0426492-0.0128065 0.0008831 0.0055298
           dy  0.0286416-0.0241444-0.0051688-0.0006481-0.0029661-0.0002676
           dz  0.0508823-0.0055326-0.0633517-0.0281438 0.0026131 0.0066418
  19 h     dx -0.0003809 0.0001103-0.0007912-0.0002074-0.0001803-0.0009773
           dy -0.0005221-0.0002477-0.0009292 0.0005337-0.0002640-0.0000931
           dz -0.0029893 0.0018688-0.0007755-0.0008326-0.0008731-0.0019921
  20 h     dx  0.0011490-0.0005234 0.0016427-0.0001961-0.0002558-0.0007228
           dy -0.0003045 0.0000222-0.0003759 0.0001956-0.0000981 0.0003712
           dz -0.0004805-0.0004161 0.0018165-0.0002126 0.0001502-0.0003269
  21 h     dx  0.0000319-0.0000059-0.0001322 0.0002076 0.0000342 0.0000729
           dy  0.0000208 0.0002750-0.0003933-0.0002219 0.0000842 0.0001799
           dz  0.0000590 0.0001576-0.0004351-0.0000544 0.0000186 0.0002747
  22 h     dx -0.0002104-0.0003816 0.0003528-0.0000425 0.0000826-0.0003815
           dy -0.0003538 0.0000365 0.0002962-0.0006955 0.0002979-0.0011156
           dz -0.0001358-0.0000885 0.0006657-0.0005699 0.0001158-0.0006533
  23 h     dx -0.0001560-0.0000589 0.0000710 0.0000321 0.0000983-0.0001008
           dy -0.0001764-0.0000321-0.0003319 0.0002526 0.0000086 0.0002329
           dz -0.0001410 0.0000033 0.0001014 0.0000655 0.0001235-0.0000894
  24 h     dx -0.0001826 0.0000010-0.0009062 0.0002163-0.0002672 0.0004459
           dy  0.0002635 0.0002109-0.0016319 0.0005330-0.0001045 0.0004686
           dz  0.0003193 0.0005708-0.0004957 0.0000622-0.0002576-0.0000474

   ATOM              3 c                           4 c 
                  dx        dy        dz        dx        dy        dz
   3 c     dx  0.7483024
           dy -0.0380517 0.1279438
           dz  0.0787641 0.0124730 0.6081479
   4 c     dx -0.1006204 0.0010954-0.0306303 0.6868787
           dy  0.0023000-0.0669348-0.0043401-0.0399715 0.1300279
           dz  0.0099461-0.0070306-0.2436560-0.0818620 0.0219119 0.5951026
   5 c     dx -0.0079582-0.0005376-0.0426955-0.2118047 0.0085489-0.0402534
           dy -0.0002902 0.0077787 0.0022402 0.0086780-0.0588581 0.0004133
           dz -0.0200864 0.0000990-0.0224584-0.0427727 0.0007073-0.1103603
   6 c     dx -0.2498568 0.0104058-0.0802404 0.0198665-0.0027908-0.0475514
           dy  0.0089336-0.0418721 0.0006947-0.0022276 0.0029560 0.0020631
           dz -0.1177600 0.0029261-0.1787836-0.0258812 0.0009519-0.0152005
   7 c     dx -0.0626730 0.0036993-0.0077843-0.0077318 0.0007754 0.0148179
           dy  0.0047387 0.0002508 0.0019489 0.0016638-0.0031317-0.0018284
           dz  0.0216672 0.0001192 0.0473041 0.0269285-0.0026774-0.0328114
   8 c     dx -0.0110947-0.0000514-0.0181808-0.0618136 0.0046173 0.0131452
           dy -0.0003486-0.0042968 0.0002487 0.0030007 0.0014595 0.0005636
           dz -0.0272994 0.0008060-0.0318234-0.0156048 0.0023374 0.0431255
   9 c     dx  0.0252013 0.0001705 0.0487742-0.2354764 0.0151478 0.0812139
           dy -0.0007345 0.0009536-0.0039378 0.0159242-0.0450006-0.0095462
           dz  0.0282314-0.0027590-0.0233528 0.1032406-0.0110501-0.1744695
  10 c     dx -0.0069925 0.0005294 0.0007547-0.0071377-0.0007416-0.0277931
           dy  0.0021831 0.0023449-0.0008431 0.0004803 0.0002890 0.0024251
           dz  0.0008256-0.0000044 0.0017060-0.0089938 0.0014734-0.0034781
  11 c     dx  0.0003607 0.0003013-0.0006287 0.0007370-0.0004252-0.0002414
           dy -0.0003748 0.0002291 0.0008225 0.0013876-0.0000063 0.0013885
           dz  0.0010619 0.0002282-0.0005337 0.0009121 0.0001642 0.0003232
  12 n     dx  0.0001439-0.0000783 0.0001354-0.0001390 0.0001247-0.0000787
           dy -0.0000650-0.0000400-0.0007224 0.0003078-0.0001493-0.0000326
           dz -0.0002589 0.0000332-0.0004563 0.0008717-0.0004957 0.0005068
  13 h     dx  0.0035496-0.0010916-0.0268583-0.0039703 0.0005489-0.0008830
           dy  0.0000608 0.0018911 0.0010553 0.0004702 0.0049995-0.0000197
           dz  0.0026547-0.0006825-0.0118938-0.0021176 0.0000261 0.0015958
  14 h     dx -0.0019420 0.0006904 0.0039712 0.0000236-0.0000274 0.0004439
           dy  0.0006835 0.0064830-0.0005329-0.0000749-0.0006707-0.0000463
           dz  0.0032192-0.0005100-0.0014925 0.0009995-0.0000542-0.0005839
  15 h     dx  0.0000240-0.0000208-0.0006704-0.0028448 0.0005150-0.0040024
           dy -0.0000892-0.0000759 0.0000281 0.0006461 0.0071671-0.0000301
           dz -0.0010335 0.0000227-0.0006450-0.0032896-0.0000516-0.0009382
  16 h     dx -0.0037602 0.0006752 0.0013930 0.0054896 0.0006590 0.0257514
           dy  0.0008514 0.0056646-0.0003098-0.0004924 0.0013896-0.0021580
           dz  0.0021802-0.0001963 0.0012771-0.0015910-0.0003212-0.0125424
  17 h     dx  0.0030000 0.0009927 0.0288382-0.0074330 0.0006548 0.0011107
           dy -0.0010346-0.0067977-0.0014214 0.0004833 0.0021252-0.0001339
           dz  0.0005999 0.0001098-0.0038464 0.0021355-0.0002561 0.0017036
  18 h     dx  0.0004267 0.0000287-0.0023498-0.0006569 0.0005651 0.0016186
           dy  0.0001828 0.0022074-0.0001844 0.0004684 0.0047660-0.0003678
           dz -0.0014519-0.0001818-0.0051654 0.0030787-0.0005436-0.0047574
  19 h     dx  0.0004442-0.0000640-0.0001128 0.0000251 0.0003738 0.0000708
           dy -0.0002399 0.0000285 0.0003738-0.0003696 0.0003849-0.0000059
           dz  0.0011350-0.0002435-0.0012027 0.0015287-0.0010579 0.0017947
  20 h     dx -0.0005624-0.0000776 0.0002546 0.0010510 0.0006006-0.0021824
           dy -0.0002403 0.0001499-0.0000176-0.0003304 0.0009600-0.0006077
           dz -0.0014441-0.0001903-0.0000717 0.0002231 0.0005118-0.0046682
  21 h     dx  0.0000180 0.0000514 0.0003036-0.0000147-0.0000087 0.0001768
           dy -0.0000522-0.0000452-0.0004330 0.0001505 0.0001470-0.0002267
           dz  0.0000897 0.0001149-0.0002737 0.0000031-0.0000280 0.0000876
  22 h     dx  0.0000894-0.0000457 0.0001102 0.0001057-0.0000958 0.0002247
           dy  0.0003035 0.0000619-0.0004692 0.0003270-0.0000755-0.0001171
           dz  0.0003102 0.0000784-0.0003425 0.0003774-0.0001319 0.0000527
  23 h     dx  0.0001212-0.0000063 0.0001295-0.0000434 0.0000246-0.0000067
           dy  0.0000337 0.0000340 0.0002021-0.0001047 0.0000823 0.0000603
           dz  0.0000601 0.0000694 0.0001368 0.0000810-0.0000433-0.0000862
  24 h     dx -0.0002293-0.0000335-0.0001611-0.0002317 0.0001790-0.0000662
           dy  0.0000227-0.0000463 0.0006657-0.0009393 0.0002789-0.0004214
           dz -0.0000857 0.0000239 0.0001972-0.0000955-0.0000043-0.0000438

   ATOM              5 c                           6 c 
                  dx        dy        dz        dx        dy        dz
   5 c     dx  0.5332658
           dy -0.0241787 0.1490804
           dz  0.0035845 0.0305820 0.7265132
   6 c     dx -0.0027302 0.0004134-0.0008107 0.6317123
           dy  0.0005898 0.0016917-0.0001223-0.0345412 0.1016953
           dz  0.0009042-0.0005583-0.0059943-0.0045816 0.0219071 0.7047438
   7 c     dx  0.0004329 0.0000448 0.0023246-0.2690606 0.0196507 0.1279891
           dy -0.0007616-0.0006862-0.0001540 0.0177791-0.0425985-0.0131608
           dz -0.0113256 0.0009534 0.0002321 0.0795702-0.0100272-0.1793883
   8 c     dx  0.0121558-0.0006371 0.0023381 0.0218841-0.0008296 0.0236221
           dy  0.0004018 0.0053427-0.0001389 0.0008622 0.0032776-0.0026815
           dz  0.0144975-0.0013028-0.0031555 0.0595665-0.0049845-0.0322444
   9 c     dx -0.0438529 0.0036192 0.0169351-0.0427652 0.0029819 0.0053194
           dy  0.0031750-0.0005488-0.0005627 0.0024210-0.0032450-0.0003586
           dz  0.0002059 0.0003185 0.0136029-0.0047840 0.0002964 0.0001654
  10 c     dx -0.1037287-0.0007734-0.0471157 0.0007984-0.0001893-0.0014653
           dy  0.0039460-0.0597215 0.0044317-0.0001467 0.0005464 0.0003089
           dz -0.0438724-0.0034923-0.1900535 0.0001527-0.0001592 0.0001192
  11 c     dx -0.0009568-0.0111618-0.0076760 0.0003228 0.0000116 0.0002163
           dy -0.0074918 0.0008911-0.0177475-0.0001307-0.0001562 0.0000784
           dz -0.0011366-0.0279938-0.0211398-0.0002729 0.0000523 0.0000010
  12 n     dx  0.0008046-0.0006603 0.0024441-0.0000550-0.0000128-0.0000906
           dy  0.0014065 0.0004608 0.0045130 0.0002229 0.0000372 0.0000604
           dz -0.0015062-0.0008976-0.0009961 0.0001365 0.0000766 0.0001050
  13 h     dx -0.0000236-0.0001250-0.0015220-0.0546144 0.0013267-0.0125387
           dy  0.0000194-0.0001210 0.0000733 0.0013625-0.0281263-0.0096196
           dz  0.0002174-0.0000747-0.0005255-0.0116152-0.0098104-0.3181860
  14 h     dx  0.0002801-0.0000562-0.0001659-0.0187155 0.0007730-0.0131570
           dy -0.0000164-0.0002604-0.0000257 0.0017577 0.0001556 0.0011720
           dz -0.0002120 0.0000281 0.0001073 0.0157964-0.0006524 0.0098274
  15 h     dx -0.0002105 0.0000693 0.0012009 0.0014558 0.0001905-0.0007308
           dy  0.0000005 0.0009307-0.0000701 0.0002330 0.0052170-0.0003454
           dz -0.0001296-0.0000376 0.0005821-0.0015131-0.0002390-0.0049941
  16 h     dx  0.0007938-0.0003056-0.0005906-0.0011280 0.0001399 0.0001781
           dy -0.0002212-0.0025833 0.0000194-0.0000758-0.0002026 0.0000538
           dz -0.0011246 0.0001256 0.0003443 0.0004169-0.0000288 0.0004389
  17 h     dx -0.0036758 0.0001592-0.0043726 0.0019038-0.0002531-0.0000122
           dy  0.0003552 0.0009644 0.0003585-0.0001134-0.0011748 0.0001308
           dz -0.0042978 0.0000760-0.0008002-0.0009541 0.0001827 0.0016475
  18 h     dx -0.0055837 0.0005400-0.0032317-0.0005518 0.0002211 0.0005372
           dy  0.0008407 0.0019183 0.0013981 0.0000677 0.0018831-0.0000901
           dz  0.0202350-0.0017072 0.0057476-0.0011000 0.0000475 0.0012213
  19 h     dx  0.0076272 0.0078853-0.0078147 0.0001356-0.0000378 0.0001028
           dy  0.0014749 0.0018713-0.0021275 0.0000917-0.0000220-0.0000775
           dz  0.0155300 0.0150441-0.0231920-0.0000025 0.0000165 0.0002561
  20 h     dx -0.0125929 0.0030747-0.0005466 0.0000524 0.0000006-0.0003116
           dy -0.0019191-0.0003087-0.0007179-0.0000356-0.0000364-0.0000224
           dz -0.0300497 0.0098056-0.0016777 0.0002096-0.0001150-0.0004597
  21 h     dx  0.0004700-0.0002446-0.0001803-0.0000878 0.0000040-0.0000142
           dy  0.0003637 0.0011171 0.0017196 0.0000350 0.0000074 0.0000752
           dz  0.0013833 0.0001077 0.0010891-0.0000036-0.0000313 0.0000395
  22 h     dx  0.0010299-0.0001777-0.0005646 0.0000069-0.0000006 0.0000073
           dy  0.0013093-0.0052238-0.0011055 0.0000076 0.0000530 0.0000015
           dz  0.0005282-0.0026285 0.0003007 0.0000264 0.0000136 0.0000567
  23 h     dx -0.0001312-0.0000520-0.0003920-0.0000999-0.0000101-0.0000337
           dy  0.0000384-0.0003788-0.0003512-0.0000479 0.0000127-0.0000276
           dz -0.0001737-0.0002749-0.0002459-0.0000347-0.0000096-0.0000155
  24 h     dx  0.0002151 0.0001729 0.0001796 0.0000234 0.0000680-0.0000137
           dy -0.0002125 0.0003343 0.0003480-0.0001680 0.0000167-0.0001476
           dz -0.0003679 0.0000484 0.0014085-0.0000216-0.0000154-0.0000363

   ATOM              7 c                           8 c 
                  dx        dy        dz        dx        dy        dz
   7 c     dx  0.6906931
           dy -0.0378692 0.1040181
           dz  0.0193006 0.0172561 0.6249062
   8 c     dx -0.1119530 0.0056779 0.0207320 0.6898132
           dy  0.0034103-0.0442084-0.0099446-0.0386296 0.1035036
           dz -0.0323703-0.0065809-0.2927831-0.0210151 0.0196554 0.6280435
   9 c     dx  0.0168843-0.0036791-0.0644127-0.2840577 0.0131101-0.0724754
           dy -0.0018609 0.0019450 0.0029002 0.0110817-0.0426778 0.0004551
           dz -0.0261771 0.0006034-0.0282426-0.1216836 0.0035405-0.1671329
  10 c     dx  0.0000536 0.0000317 0.0002681 0.0000130 0.0000047-0.0003899
           dy  0.0000233-0.0003171-0.0001023-0.0003263 0.0000385 0.0002582
           dz  0.0000501 0.0000815 0.0005749-0.0004155-0.0003048-0.0010109
  11 c     dx -0.0001383-0.0000704 0.0002154-0.0004359 0.0001916 0.0000232
           dy  0.0001244 0.0000383-0.0001217 0.0006139-0.0000873 0.0000173
           dz  0.0000983-0.0000676-0.0001954 0.0001054-0.0000405 0.0002510
  12 n     dx  0.0000174 0.0000040-0.0000055 0.0000674 0.0000333-0.0001219
           dy -0.0003605 0.0000356 0.0000510-0.0002540 0.0001158-0.0001401
           dz -0.0001985-0.0000041-0.0000590 0.0000138 0.0000440 0.0000160
  13 h     dx  0.0054969 0.0006542 0.0258194-0.0039181 0.0007329 0.0020402
           dy -0.0004644 0.0006137-0.0021497 0.0008604 0.0067364-0.0003904
           dz -0.0028508-0.0002958-0.0127985 0.0033323-0.0004319 0.0011553
  14 h     dx -0.2634373 0.0113701-0.1099345 0.0019104-0.0000671 0.0016685
           dy  0.0114500-0.0280175 0.0041370-0.0012058-0.0002896-0.0004387
           dz -0.1106055 0.0041718-0.1111719-0.0275433 0.0014189-0.0095818
  15 h     dx  0.0035184-0.0003332-0.0027157-0.2486731 0.0182530 0.1179540
           dy  0.0006011-0.0008177-0.0002043 0.0184188-0.0288852-0.0108845
           dz  0.0267352-0.0021041-0.0116928 0.1181855-0.0109805-0.1247277
  16 h     dx -0.0042404 0.0005898-0.0019275 0.0035371-0.0010655-0.0269460
           dy  0.0006813 0.0075527-0.0001680-0.0000761 0.0008570 0.0012723
           dz -0.0030448-0.0000247 0.0011903 0.0021069-0.0005590-0.0113531
  17 h     dx -0.0003008 0.0000065 0.0002840-0.0001415-0.0000290-0.0004536
           dy -0.0000314-0.0002687-0.0000024 0.0000024-0.0001381-0.0000028
           dz  0.0001959-0.0000012-0.0010141 0.0001095 0.0000047 0.0007656
  18 h     dx  0.0000381-0.0000011-0.0003809-0.0000792-0.0000332 0.0003758
           dy  0.0000356 0.0000863-0.0000267-0.0000107-0.0005349 0.0000111
           dz -0.0002146-0.0000317-0.0006132 0.0005109-0.0000304-0.0001956
  19 h     dx -0.0000408 0.0000998 0.0001700-0.0002371-0.0002209-0.0001217
           dy -0.0000735 0.0000219 0.0000863 0.0000775-0.0000442-0.0003120
           dz -0.0000798 0.0000183-0.0000643-0.0002389-0.0000077 0.0003151
  20 h     dx  0.0000190 0.0000077-0.0000162-0.0000093 0.0000086 0.0000116
           dy -0.0000333-0.0000128-0.0000679 0.0001146-0.0000136 0.0000023
           dz  0.0000632 0.0000230 0.0000687-0.0002112-0.0000024 0.0001529
  21 h     dx  0.0000271 0.0000092-0.0000233 0.0000563-0.0000453-0.0000233
           dy  0.0000170-0.0000358 0.0000050-0.0001622 0.0000289 0.0002228
           dz -0.0000026 0.0000211-0.0000057-0.0000586 0.0000385-0.0000087
  22 h     dx -0.0000279 0.0000053-0.0000105 0.0000194-0.0000205-0.0000128
           dy -0.0000302-0.0000150-0.0000075-0.0001174 0.0000326 0.0000826
           dz -0.0000600-0.0000010 0.0000054-0.0000902 0.0000116 0.0000427
  23 h     dx  0.0000790-0.0000018-0.0000425 0.0000801-0.0000649 0.0000537
           dy  0.0000688-0.0000103 0.0000088 0.0000457-0.0000138 0.0000101
           dz  0.0000685 0.0000059 0.0000108-0.0000007-0.0000066 0.0000745
  24 h     dx -0.0000504-0.0000002-0.0000014-0.0000047 0.0000089-0.0000403
           dy  0.0002938 0.0000035 0.0000002 0.0001363-0.0000788-0.0000417
           dz  0.0000424-0.0000192-0.0000059 0.0000498-0.0000216 0.0000073

   ATOM              9 c                          10 c 
                  dx        dy        dz        dx        dy        dz
   9 c     dx  0.6280424
           dy -0.0328798 0.1078930
           dz  0.0155824 0.0198720 0.6960289
  10 c     dx  0.0019691-0.0003715-0.0001102 0.5493834
           dy  0.0002756-0.0015815-0.0004232-0.0112223 0.4159265
           dz  0.0024373-0.0001646 0.0007182-0.0289933-0.0516076 0.4784261
  11 c     dx  0.0005244 0.0002869-0.0005404-0.0726029 0.0068979 0.0024906
           dy -0.0009303-0.0003313 0.0005830 0.0135158-0.1241976-0.0234017
           dz -0.0003794-0.0004503 0.0001067 0.0020174-0.0307251-0.0847003
  12 n     dx -0.0000160-0.0001092 0.0002204-0.0046715-0.0105334 0.0017186
           dy  0.0001349 0.0002562-0.0001011-0.0251934-0.0318196 0.0163900
           dz -0.0001833 0.0001151-0.0000492-0.0014007 0.0016462 0.0074452
  13 h     dx -0.0012629 0.0001259 0.0001113-0.0004298 0.0000846 0.0001632
           dy  0.0001015 0.0002790 0.0000373 0.0000121 0.0002350-0.0000073
           dz -0.0003509 0.0000238 0.0004647-0.0002639 0.0000308 0.0001518
  14 h     dx  0.0016025 0.0002701 0.0002159-0.0000081-0.0000267 0.0000189
           dy  0.0003552 0.0056149-0.0003598-0.0000283-0.0000101 0.0000499
           dz  0.0010536-0.0004233-0.0052909 0.0000299 0.0000121-0.0000192
  15 h     dx -0.0188545 0.0017291 0.0152466 0.0000005-0.0000073 0.0000933
           dy  0.0005671-0.0002279-0.0007649 0.0000655 0.0001445-0.0000542
           dz -0.0139556 0.0012477 0.0101347 0.0000117-0.0000025 0.0000193
  16 h     dx -0.0540089 0.0013800-0.0032742-0.0001374-0.0002553 0.0003763
           dy  0.0014727-0.0298427-0.0100003 0.0000708 0.0001678-0.0000864
           dz -0.0048341-0.0099708-0.3188822 0.0004475 0.0000699-0.0001050
  17 h     dx  0.0015530 0.0000516 0.0015159 0.0011527 0.0000344-0.0005189
           dy -0.0000210 0.0013706-0.0000983 0.0001844 0.0025769-0.0002703
           dz -0.0008870-0.0000064-0.0005963 0.0007298 0.0001761-0.0000160
  18 h     dx -0.0002417 0.0000984-0.0003985 0.0002785-0.0005113-0.0002979
           dy  0.0000229 0.0012537 0.0000378-0.0007745-0.0036173-0.0003376
           dz  0.0005274-0.0000543 0.0013262 0.0007074-0.0001316 0.0016926
  19 h     dx  0.0004676-0.0000850-0.0000408-0.1159681-0.0747782 0.0793480
           dy  0.0000083-0.0000311 0.0004950-0.0743708-0.1214569 0.0865656
           dz -0.0004443 0.0002260-0.0001325 0.0802495 0.0853802-0.1309595
  20 h     dx  0.0002743-0.0000414-0.0000390-0.2550928 0.0819622 0.0018777
           dy -0.0000135 0.0000175-0.0000525 0.0829842-0.0728604 0.0022629
           dz  0.0004170-0.0000758-0.0003010 0.0033662 0.0004219-0.0438977
  21 h     dx -0.0002619-0.0002035 0.0000861 0.0006144 0.0009362-0.0006357
           dy -0.0000090 0.0001278-0.0004467 0.0264364-0.0140835-0.0018598
           dz -0.0001845 0.0000503 0.0001140 0.0108774-0.0075016-0.0009686
  22 h     dx  0.0000588-0.0000459-0.0000148 0.0000650 0.0019619 0.0012051
           dy  0.0000129 0.0000140-0.0000695-0.0108911-0.0015024-0.0277988
           dz  0.0000628-0.0000006-0.0000596-0.0054523-0.0004798-0.0114264
  23 h     dx -0.0000780-0.0000401 0.0000694 0.0019090 0.0011203-0.0009865
           dy -0.0000177-0.0000399 0.0000702-0.0023378 0.0025337 0.0001129
           dz  0.0000613 0.0000515-0.0000505-0.0008151 0.0004699 0.0001812
  24 h     dx -0.0001320 0.0000552 0.0000975-0.0000696-0.0007862 0.0000785
           dy  0.0000428-0.0001103 0.0000936 0.0010987 0.0007838 0.0019182
           dz  0.0000019-0.0000118-0.0000369-0.0008795-0.0015509 0.0011255

   ATOM             11 c                          12 n 
                  dx        dy        dz        dx        dy        dz
  11 c     dx  0.5538003
           dy -0.0491472 0.3966884
           dz  0.0308001-0.0259190 0.5408981
  12 n     dx -0.1312231-0.0579248 0.0212479 0.5948352
           dy -0.0293101-0.1115336 0.0331904-0.0409831 0.2226091
           dz  0.0316807 0.0706431-0.1120603 0.0493386-0.1138270 0.5300713
  13 h     dx -0.0000063 0.0000570 0.0000048-0.0000107-0.0000369 0.0000074
           dy  0.0000525-0.0000006 0.0000384 0.0000013-0.0000272-0.0000248
           dz  0.0000260 0.0000785 0.0000025-0.0000321-0.0000930-0.0000150
  14 h     dx  0.0000097 0.0000653-0.0000103-0.0000210-0.0000767-0.0000134
           dy -0.0000207 0.0000332 0.0000105 0.0000097-0.0000362-0.0000204
           dz  0.0000678 0.0000053-0.0000030-0.0000378-0.0000305-0.0000004
  15 h     dx -0.0000246 0.0000954 0.0000074-0.0000066-0.0001029-0.0000364
           dy -0.0000303 0.0000028 0.0000313-0.0000079-0.0000238 0.0000118
           dz -0.0000208 0.0000048 0.0000112 0.0000057 0.0000138 0.0000049
  16 h     dx -0.0004544-0.0000708-0.0001163 0.0002415 0.0001454-0.0000329
           dy -0.0004610 0.0003892 0.0001844 0.0001484-0.0002475-0.0000677
           dz  0.0003382-0.0002622 0.0000071-0.0001715 0.0000015 0.0000325
  17 h     dx -0.0000339 0.0003445-0.0001515-0.0000822-0.0002341 0.0000223
           dy  0.0002482-0.0001321 0.0006568-0.0000531-0.0001294-0.0000542
           dz  0.0000230-0.0000295-0.0001118 0.0000322 0.0000782 0.0000331
  18 h     dx  0.0000261 0.0000393 0.0001075 0.0000728-0.0001811-0.0001173
           dy  0.0005078 0.0009138-0.0008454-0.0004011-0.0000172 0.0005984
           dz -0.0000170-0.0000265-0.0001582-0.0000411 0.0001914 0.0000925
  19 h     dx -0.0014823 0.0010527 0.0008586 0.0010817-0.0017937-0.0004116
           dy -0.0173023-0.0158279 0.0188888-0.0008278-0.0074191-0.0025279
           dz -0.0065862-0.0057665 0.0066877-0.0002723-0.0027196 0.0005082
  20 h     dx -0.0015851-0.0006754 0.0009887 0.0026079-0.0003513-0.0008089
           dy  0.0286677-0.0153588-0.0027789 0.0005751 0.0035096-0.0000039
           dz  0.0123489-0.0053129-0.0009963-0.0006850 0.0013287-0.0000902
  21 h     dx -0.2534375 0.0862884 0.0048813-0.0224803 0.0001347 0.0022543
           dy  0.0913103-0.0790993-0.0018231-0.0259140 0.0052588 0.0010513
           dz  0.0001664-0.0005528-0.0471940 0.0195432-0.0021744-0.0003083
  22 h     dx -0.0771730 0.0059143-0.0836691 0.0061977-0.0054099 0.0215287
           dy  0.0040474-0.0425327 0.0078977 0.0060480-0.0062157 0.0248022
           dz -0.0781205 0.0110779-0.2584450-0.0030011 0.0067363-0.0170918
  23 h     dx -0.0230182 0.0092131 0.0027288-0.3567110 0.0959431-0.0046583
           dy -0.0289295 0.0010077 0.0010419 0.1373871-0.0609947 0.0206650
           dz  0.0194378-0.0091166-0.0002881 0.0191928 0.0124912-0.0482013
  24 h     dx  0.0081920-0.0019459 0.0228295-0.0908126 0.0067206-0.0955148
           dy  0.0054668-0.0080194 0.0278077-0.0076802-0.0142439-0.0003037
           dz -0.0050553-0.0010548-0.0209869-0.1089429 0.0453159-0.3612695

   ATOM             13 h                          14 h 
                  dx        dy        dz        dx        dy        dz
  13 h     dx  0.0523488
           dy -0.0016515 0.0209814
           dz  0.0121676 0.0108067 0.3394259
  14 h     dx  0.0009119-0.0003150 0.0001259 0.2800361
           dy -0.0003297-0.0038977 0.0001641-0.0125488 0.0224385
           dz -0.0003858 0.0001937 0.0008939 0.1177926-0.0042648 0.1162926
  15 h     dx  0.0000692 0.0000265-0.0002059 0.0007175-0.0002191 0.0003277
           dy  0.0000782 0.0005518-0.0000263-0.0002420-0.0027506 0.0001133
           dz  0.0013076-0.0001367-0.0007451-0.0002801 0.0001424 0.0008881
  16 h     dx  0.0001438-0.0001079 0.0000073-0.0000304-0.0000191-0.0013541
           dy -0.0001028-0.0014537 0.0000530 0.0000281 0.0003261 0.0000407
           dz -0.0000235 0.0000546-0.0001334 0.0001406-0.0000592-0.0006764
  17 h     dx -0.0006476 0.0000280-0.0009748-0.0000029 0.0000107-0.0000095
           dy  0.0000787 0.0000266 0.0000504 0.0000067 0.0001660-0.0000004
           dz  0.0003560-0.0000555-0.0003856-0.0000516-0.0000045 0.0000165
  18 h     dx -0.0000202 0.0000045-0.0000425-0.0000759-0.0000308 0.0000369
           dy  0.0000086 0.0000670 0.0000023-0.0000237-0.0004152 0.0000151
           dz  0.0000521-0.0000044 0.0000050-0.0001041 0.0000299 0.0000859
  19 h     dx  0.0000183-0.0000250 0.0000272 0.0000040 0.0000425 0.0000171
           dy  0.0000042-0.0000057-0.0000131-0.0000033 0.0000021-0.0000321
           dz  0.0000240-0.0000106 0.0000129-0.0000161 0.0000066 0.0000334
  20 h     dx -0.0000823-0.0000229-0.0000607-0.0000242-0.0000083-0.0000227
           dy -0.0000110 0.0000093-0.0000153-0.0000005-0.0000105-0.0000067
           dz -0.0001423-0.0000143-0.0000945-0.0000140 0.0000040 0.0000114
  21 h     dx  0.0000014-0.0000118 0.0000004 0.0000010 0.0000152-0.0000103
           dy -0.0000090-0.0000021 0.0000075 0.0000072 0.0000011 0.0000395
           dz  0.0000090 0.0000016 0.0000121 0.0000077-0.0000056 0.0000090
  22 h     dx -0.0000012-0.0000121-0.0000101-0.0000097 0.0000038-0.0000093
           dy -0.0000139 0.0000088-0.0000157-0.0000160-0.0000029 0.0000037
           dz -0.0000012 0.0000096-0.0000131-0.0000185-0.0000003-0.0000003
  23 h     dx  0.0000020-0.0000004 0.0000089 0.0000089 0.0000092-0.0000034
           dy  0.0000077 0.0000050 0.0000241 0.0000190 0.0000049 0.0000067
           dz -0.0000029 0.0000050 0.0000141 0.0000119 0.0000063 0.0000115
  24 h     dx  0.0000002-0.0000050 0.0000042 0.0000051-0.0000084 0.0000031
           dy  0.0000172 0.0000272 0.0000525 0.0000402 0.0000187 0.0000024
           dz -0.0000008-0.0000048 0.0000022 0.0000044 0.0000002-0.0000029

   ATOM             15 h                          16 h 
                  dx        dy        dz        dx        dy        dz
  15 h     dx  0.2643403
           dy -0.0198981 0.0237436
           dz -0.1261719 0.0119129 0.1310222
  16 h     dx  0.0009208-0.0002814 0.0003735 0.0527701
           dy -0.0003129-0.0038831 0.0001388-0.0016839 0.0220884
           dz -0.0001581 0.0002071 0.0008602 0.0049885 0.0109697 0.3402714
  17 h     dx -0.0000275 0.0000050-0.0000890-0.0005096 0.0000423 0.0002418
           dy -0.0000001-0.0000208 0.0000073 0.0000208 0.0002539-0.0000494
           dz  0.0000020-0.0000059-0.0000077 0.0001301-0.0000106 0.0000197
  18 h     dx -0.0000549-0.0000125-0.0000218-0.0000514 0.0000150 0.0000694
           dy -0.0000037-0.0002210 0.0000095 0.0000180 0.0001577-0.0000290
           dz  0.0001442 0.0000010 0.0000944-0.0000258-0.0000009-0.0000326
  19 h     dx  0.0000169-0.0000319-0.0000005-0.0001281 0.0001833 0.0000236
           dy -0.0000043 0.0000096 0.0000073 0.0003360-0.0000426-0.0001570
           dz -0.0000259-0.0000078-0.0000013-0.0004591 0.0002252 0.0002294
  20 h     dx -0.0000450 0.0000176-0.0000020 0.0001981-0.0000665 0.0000309
           dy -0.0000085-0.0000117 0.0000066 0.0001447-0.0001229 0.0000417
           dz -0.0000484 0.0000120-0.0000144-0.0001616 0.0000329 0.0001942
  21 h     dx  0.0000139 0.0000043 0.0000030-0.0000012-0.0000269-0.0001782
           dy  0.0000076 0.0000053-0.0000093-0.0003469-0.0002776 0.0002478
           dz  0.0000274-0.0000046 0.0000070-0.0000567-0.0000806 0.0001310
  22 h     dx -0.0000227 0.0000079-0.0000048 0.0000245 0.0000613-0.0001048
           dy -0.0000199 0.0000020 0.0000004-0.0000449-0.0000517 0.0000704
           dz -0.0000285 0.0000070 0.0000006-0.0000243-0.0000158 0.0000105
  23 h     dx  0.0000145 0.0000040 0.0000028 0.0000192 0.0000655-0.0000380
           dy  0.0000233-0.0000027-0.0000018-0.0000045 0.0000268-0.0000188
           dz  0.0000136 0.0000022-0.0000031-0.0000593-0.0000392 0.0000390
  24 h     dx  0.0000015-0.0000159 0.0000016 0.0000176-0.0000449 0.0000061
           dy  0.0000584 0.0000085-0.0000123 0.0000077 0.0000607-0.0000691
           dz  0.0000059 0.0000033-0.0000047 0.0000099 0.0000285-0.0000291

   ATOM             17 h                          18 h 
                  dx        dy        dz        dx        dy        dz
  17 h     dx  0.0844357
           dy -0.0113974 0.0087185
           dz -0.1021898 0.0305666 0.4279109
  18 h     dx -0.0000964-0.0000727-0.0002254 0.3452085
           dy -0.0000351-0.0010785 0.0001390-0.0292832 0.0202515
           dz  0.0005060 0.0000541 0.0006734-0.0444671 0.0051520 0.0567758
  19 h     dx -0.0001309-0.0002556-0.0000540 0.0000406-0.0001320-0.0002226
           dy -0.0000159-0.0000207-0.0001040 0.0000182 0.0001775 0.0001265
           dz -0.0004337-0.0004983-0.0001405 0.0000806 0.0003295 0.0000501
  20 h     dx -0.0000188 0.0000440 0.0000340 0.0002284 0.0003586-0.0007827
           dy  0.0000165-0.0000215-0.0000221 0.0000526 0.0000886 0.0002058
           dz  0.0000531-0.0000603 0.0000767 0.0005594 0.0000305-0.0001345
  21 h     dx  0.0000069-0.0000161 0.0000029 0.0000091-0.0000531-0.0000426
           dy -0.0000310-0.0000372-0.0000267-0.0000580-0.0001112 0.0000840
           dz  0.0000043-0.0000292-0.0000299-0.0000642-0.0000328 0.0000369
  22 h     dx -0.0000253 0.0000316 0.0000260 0.0000352 0.0000071-0.0000050
           dy -0.0001133 0.0001679-0.0000198 0.0000232-0.0002398-0.0000494
           dz -0.0000537 0.0001022 0.0000603-0.0000246-0.0000375 0.0000038
  23 h     dx  0.0000041 0.0000102-0.0000114 0.0000953-0.0001476-0.0001282
           dy  0.0000461 0.0000173-0.0000307 0.0000426-0.0000804-0.0001174
           dz -0.0000147-0.0000128-0.0000143 0.0000881-0.0002361-0.0000971
  24 h     dx  0.0000484 0.0000435-0.0000483-0.0001164 0.0003530 0.0001023
           dy  0.0001044 0.0001122-0.0000685 0.0001158-0.0003447-0.0000934
           dz  0.0000002-0.0000527-0.0000018-0.0000310-0.0000994 0.0000583

   ATOM             19 h                          20 h 
                  dx        dy        dz        dx        dy        dz
  19 h     dx  0.1229201
           dy  0.0841234 0.1342311
           dz -0.0861709-0.0922065 0.1488216
  20 h     dx -0.0149340 0.0060687-0.0000161 0.2776764
           dy -0.0163898 0.0063942-0.0003549-0.0911113 0.0821300
           dz  0.0168321-0.0074975-0.0005218-0.0000320 0.0036900 0.0507128
  21 h     dx  0.0002582 0.0008732 0.0001741 0.0015119-0.0006036-0.0004928
           dy -0.0002687 0.0008147 0.0004827-0.0005468-0.0050767-0.0024997
           dz -0.0002182 0.0004831 0.0002385 0.0004359-0.0023860-0.0001929
  22 h     dx -0.0000690-0.0004308-0.0002210 0.0004647-0.0005363 0.0003012
           dy -0.0002491 0.0011419 0.0005696 0.0004470 0.0011585 0.0003342
           dz -0.0003669-0.0003381 0.0003871 0.0005729 0.0003304 0.0000720
  23 h     dx  0.0005989 0.0005321 0.0001097 0.0000265-0.0013042-0.0003878
           dy  0.0006319-0.0000156 0.0000383 0.0009643-0.0003731-0.0000076
           dz  0.0000565-0.0001308-0.0001431-0.0002747 0.0002714 0.0003400
  24 h     dx -0.0000598 0.0000183-0.0000429-0.0001168 0.0000909-0.0000118
           dy  0.0000089 0.0003200-0.0004595 0.0001260-0.0001346-0.0001527
           dz -0.0002036-0.0004742-0.0002096-0.0000308 0.0002474 0.0000023

   ATOM             21 h                          22 h 
                  dx        dy        dz        dx        dy        dz
  21 h     dx  0.2816184
           dy -0.0887378 0.0927265
           dz -0.0093321 0.0006061 0.0475763
  22 h     dx -0.0085864 0.0011215-0.0260400 0.0790272
           dy  0.0036673-0.0007754 0.0104369-0.0002013 0.0549147
           dz -0.0002467-0.0002367 0.0014570 0.0832632-0.0154550 0.2857311
  23 h     dx -0.0002687-0.0035810 0.0032062 0.0007643 0.0001289 0.0001344
           dy -0.0021372-0.0016562 0.0016440 0.0008180 0.0005343-0.0003452
           dz  0.0032818 0.0033933-0.0017852 0.0002352-0.0005555-0.0000586
  24 h     dx  0.0002925 0.0004687 0.0002022-0.0017207-0.0035758 0.0029188
           dy  0.0000764 0.0006062-0.0008533-0.0026573-0.0017890 0.0012760
           dz  0.0000746-0.0001596 0.0001294 0.0037941 0.0022831-0.0007556

   ATOM             23 h                          24 h 
                  dx        dy        dz        dx        dy        dz
  23 h     dx  0.3880429
           dy -0.1082019 0.0640260
           dz -0.0038702-0.0179228 0.0505647
  24 h     dx -0.0112918 0.0015784-0.0372673 0.0960062
           dy  0.0063200-0.0046956 0.0114555-0.0030755 0.0267852
           dz  0.0041452-0.0049619-0.0003956 0.1072046-0.0398332 0.3813910
 

 keyword $hessian missing in file <control>


   *** projected hessian written onto $hessian (projected), file=<control> ***

 dipole moment in principle axis system (a.u.) :
    -1.0127056616     0.5445489776     0.1865311353
 norm :   1.16486059705182     

 rotational constants b for rotations around axis of inertia
 and optical intensities for (1 <-- 0) transition

   b   :     0.0578804635     0.0179421534     0.0220545943   (cm**(-1))
   b   :        1735.2126         537.8922         661.1801     (MHz)
  int. :     1.0255727571     0.2965335890     0.0347938644     (a.u.)

   x   :     0.7990194863    -0.0729472892    -0.5968639322
   y   :     0.2362122391     0.9508962707     0.2000001513
   z   :     0.5529662183    -0.3007905840     0.7770156922

 keyword $vibrational normal modes missing in file <control>


   ***  normal modes written onto $vibrational normal modes, file=<control>  ***

 keyword $vibrational reduced masses missing in file <control>


 keyword $vibrational spectrum missing in file <control>


   ***  vibrational spectroscopic data written onto$vibrational spectrum   
        file=<control>  ***

          ---------------------------------------------------
          NORMAL MODES and VIBRATIONAL FREQUENCIES (cm**(-1))
          ---------------------------------------------------

 imaginary wave numbers indicate a negative curvature of the energy surface.
 zero frequency modes have no physical meaning except being generators of
 translations and rotations. each vibrational normal mode - given in terms of
 cartesian displacement vectors of all atoms - has been normalized to unity.
 to obtain mass-weigthed normal coordinates in a.u. divide the tabulated
 modes by sqrt(reduced mass * 1822.88853).
 band intensities or cross sections refer to independent non-degenerate normal
 modes, that is, the intensities of degenerate modes have yet to be added.
 dDIP/dQ is the normal mode derivative of the dipole moment.


       mode               1        2        3        4        5        6

     frequency           0.00     0.00     0.00     0.00     0.00     0.00

     symmetry                                                             

        IR                -        -        -        -        -        - 
|dDIP/dQ|   (a.u.)     0.0000   0.0000   0.0000   0.0000   0.0000   0.0000
intensity (km/mol)       0.00     0.00     0.00     0.00     0.00     0.00
intensity (  %   )       0.00     0.00     0.00     0.00     0.00     0.00
 
       RAMAN              -        -        -        -        -        - 
 
  1   c           x   0.01348  0.18567  0.01121  0.06182 -0.05888  0.03374
                  y  -0.12267  0.14529 -0.01497 -0.12165  0.16614  0.09154
                  z   0.19126 -0.00297 -0.01098 -0.06842 -0.08785  0.10602
  2   n           x   0.02100  0.18894  0.03701  0.03305 -0.12784  0.06658
                  y  -0.16621  0.10011  0.02472 -0.05954  0.19294  0.16208
                  z   0.18416 -0.00664 -0.03115 -0.04359 -0.03101  0.08079
  3   c           x   0.02242  0.18158  0.03374  0.04940 -0.10040  0.05120
                  y  -0.07777  0.03249  0.12548 -0.03130  0.14105  0.11623
                  z   0.16860 -0.01203 -0.06235 -0.00478  0.05600  0.04850
  4   c           x   0.01568  0.17317  0.00500  0.09015 -0.01076  0.00691
                  y   0.02499  0.03580  0.14939 -0.07780  0.07946  0.01291
                  z   0.16559 -0.01169 -0.06161 -0.00541  0.05329  0.05422
  5   c           x   0.00987  0.17616 -0.00930  0.09730  0.01451 -0.00352
                  y  -0.00562  0.10828  0.05867 -0.13511  0.09663 -0.00121
                  z   0.18053 -0.00588 -0.02851 -0.04645 -0.03935  0.09079
  6   c           x   0.02882  0.18169  0.05296  0.03221 -0.14552  0.07192
                  y  -0.07859 -0.03061  0.19707  0.03016  0.14255  0.15560
                  z   0.15723 -0.01711 -0.09078  0.03034  0.13587  0.01494
  7   c           x   0.02844  0.17317  0.04315  0.05646 -0.09969  0.04766
                  y   0.02587 -0.09155  0.29456  0.04519  0.08096  0.08987
                  z   0.14254 -0.02195 -0.11903  0.06552  0.21453 -0.01340
  8   c           x   0.02178  0.16484  0.01474  0.09676 -0.01106  0.00387
                  y   0.12861 -0.08967  0.32008  0.00008  0.01940 -0.01254
                  z   0.13939 -0.02173 -0.11891  0.06565  0.21356 -0.00856
  9   c           x   0.01545  0.16473 -0.00428  0.11376  0.03358 -0.01663
                  y   0.12906 -0.02682  0.24867 -0.06099  0.01813 -0.05140
                  z   0.15069 -0.01667 -0.09059  0.03067  0.13403  0.02489
 10   c           x   0.00387  0.16733 -0.03625  0.13724  0.10111 -0.04658
                  y   0.07334  0.13753  0.04664 -0.19671  0.04888 -0.09692
                  z   0.17969 -0.00345 -0.01683 -0.06041 -0.07323  0.11267
 11   c           x   0.05954  0.09020  0.05137  0.20086  0.10448 -0.07760
                  y   0.11541  0.13966  0.05555 -0.21650  0.02365 -0.13969
                  z   0.07352 -0.00265 -0.04516 -0.01741 -0.01240  0.21864
 12   n           x   0.10390  0.04279  0.13551  0.21322  0.03596 -0.06432
                  y   0.02803  0.18336 -0.01772 -0.22202  0.07528 -0.08027
                  z   0.00671  0.00126 -0.04626 -0.01045 -0.02241  0.31488
 13   h           x   0.03392  0.18820  0.07486  0.00098 -0.21409  0.10582
                  y  -0.15795 -0.03224  0.17756  0.06518  0.19010  0.23483
                  z   0.15974 -0.01730 -0.09093  0.03031  0.13678  0.01100
 14   h           x   0.03337  0.17297  0.05766  0.04401 -0.13298  0.06284
                  y   0.02824 -0.14165  0.35221  0.09272  0.08034  0.11816
                  z   0.13335 -0.02599 -0.14164  0.09348  0.27802 -0.03988
 15   h           x   0.02164  0.15835  0.00770  0.11484  0.02282 -0.01414
                  y   0.20891 -0.13848  0.39724  0.01353 -0.02791 -0.06186
                  z   0.12782 -0.02561 -0.14148  0.09374  0.27645 -0.03147
 16   h           x   0.01033  0.15825 -0.02622  0.14499  0.10218 -0.05054
                  y   0.20924 -0.02617  0.26953 -0.09540 -0.02990 -0.13083
                  z   0.14810 -0.01656 -0.09086  0.03121  0.13430  0.02822
 17   h           x   0.02388  0.19686  0.05371  0.00383 -0.18809  0.09722
                  y  -0.24959  0.11442 -0.01401 -0.03827  0.24264  0.23552
                  z   0.19125 -0.00555 -0.02365 -0.05320 -0.05126  0.08362
 18   h           x   0.01049  0.19139  0.00811  0.05408 -0.06708  0.03968
                  y  -0.17919  0.20110 -0.09369 -0.15189  0.19910  0.11315
                  z   0.20494  0.00148  0.01504 -0.10084 -0.16028  0.13190
 19   h           x  -0.02682  0.19794 -0.09670  0.13468  0.15965 -0.06170
                  y   0.14808  0.10653  0.10204 -0.19817  0.00461 -0.15165
                  z   0.22381 -0.00620 -0.01692 -0.06403 -0.06426  0.04767
 20   h           x  -0.01309  0.18874 -0.06506  0.12356  0.11066 -0.04277
                  y   0.03066  0.19087 -0.02556 -0.23040  0.07359 -0.08745
                  z   0.21642  0.00067  0.01459 -0.10126 -0.15670  0.11423
 21   h           x   0.07604  0.06891  0.07893  0.21544  0.09755 -0.08256
                  y   0.16097  0.08633  0.12850 -0.18404 -0.00279 -0.15201
                  z   0.03719 -0.00677 -0.07645  0.02326  0.07079  0.21671
 22   h           x   0.05079  0.08888  0.02386  0.22755  0.17215 -0.10910
                  y   0.17792  0.15785  0.05168 -0.26045 -0.01408 -0.21242
                  z   0.08004 -0.00117 -0.03592 -0.02906 -0.03778  0.22537
 23   h           x   0.09076  0.05961  0.11341  0.20199  0.04220 -0.06075
                  y  -0.01383  0.23397 -0.08658 -0.25340  0.09955 -0.06993
                  z   0.03647  0.00520 -0.01786 -0.04708 -0.09855  0.32135
 24   h           x   0.11253  0.04348  0.16199  0.18857 -0.02765 -0.03491
                  y  -0.03168  0.16781 -0.01610 -0.18180  0.11129 -0.01191
                  z   0.00000  0.00000 -0.05448  0.00000  0.00000  0.31021

reduced mass(g/mol)     5.676    6.195    5.749    5.222    5.223    5.033


       mode               7        8        9       10       11       12

     frequency          35.16    75.53   126.00   171.29   211.05   242.74

     symmetry            a        a        a        a        a        a   

        IR               YES      YES      YES      YES      YES      YES
|dDIP/dQ|   (a.u.)     0.0005   0.0006   0.0008   0.0014   0.0020   0.0015
intensity (km/mol)       0.39     0.63     1.25     3.59     7.36     4.25
intensity (  %   )       0.20     0.32     0.63     1.80     3.69     2.13
 
       RAMAN             YES      YES      YES      YES      YES      YES
 
  1   c           x   0.03084 -0.02218 -0.01781 -0.04430 -0.01838  0.02628
                  y  -0.11601  0.01214  0.04010 -0.04566 -0.25634  0.04063
                  z  -0.05977 -0.09396  0.03940  0.01196  0.00688 -0.03490
  2   n           x   0.00286 -0.05184  0.00157 -0.04393 -0.00572  0.01604
                  y  -0.11185 -0.09045  0.03110 -0.15066 -0.07372 -0.13540
                  z  -0.03656 -0.07246  0.02897  0.01818  0.00035 -0.04376
  3   c           x   0.02051 -0.03994 -0.00423 -0.03754  0.01321  0.01167
                  y  -0.03509 -0.05535  0.02383 -0.09056  0.21012 -0.04711
                  z  -0.00419 -0.04697  0.01084  0.01243 -0.00842 -0.06116
  4   c           x   0.06138  0.00090 -0.02728 -0.05193  0.01585  0.02969
                  y  -0.00053  0.09004  0.07291 -0.10587  0.23799  0.02018
                  z  -0.00737 -0.05386  0.01368  0.02016 -0.00957 -0.07014
  5   c           x   0.06762  0.01104 -0.02851 -0.03011  0.00121  0.00805
                  y  -0.05307  0.11702  0.05844 -0.00254  0.01718  0.10846
                  z  -0.04359 -0.08222  0.03197  0.01852 -0.00285 -0.04704
  6   c           x   0.00492 -0.06304  0.01033 -0.00128  0.01127 -0.02059
                  y   0.01451 -0.17169 -0.07074  0.10543  0.18773  0.03226
                  z   0.02733 -0.01583 -0.02070 -0.03614 -0.00655 -0.00476
  7   c           x   0.03107 -0.04337 -0.01149 -0.02280 -0.00677  0.01763
                  y   0.10198 -0.11913 -0.08488  0.15786 -0.09760  0.06247
                  z   0.05581  0.00778 -0.05461 -0.08120  0.00458  0.05926
  8   c           x   0.07123 -0.00114 -0.03841 -0.06696 -0.01314  0.05396
                  y   0.13572  0.05104  0.01333 -0.05407 -0.21779 -0.04475
                  z   0.05314  0.00050 -0.05688 -0.07277  0.00858  0.06189
  9   c           x   0.08638  0.02075 -0.05161 -0.09338  0.00440  0.07955
                  y   0.08322  0.15156  0.09149 -0.18090  0.05000 -0.05730
                  z   0.02197 -0.03033 -0.02445 -0.02710 -0.00197  0.00093
 10   c           x   0.10749  0.02639  0.04093  0.12464  0.00565 -0.18389
                  y  -0.05210  0.04566 -0.04116  0.07474  0.01170  0.04581
                  z  -0.05975 -0.08227  0.01098 -0.03757 -0.00544  0.03626
 11   c           x  -0.09699  0.00544  0.17868  0.15358 -0.00006  0.02027
                  y  -0.08268 -0.02868 -0.08637  0.04835  0.01440  0.01928
                  z   0.02677  0.08672  0.10653  0.05217 -0.00589  0.09032
 12   n           x  -0.31602  0.13149 -0.06207  0.06153  0.00099 -0.01045
                  y   0.10728  0.03057 -0.00981  0.17035  0.02858 -0.02789
                  z   0.02830  0.31302 -0.07048  0.10598  0.01314 -0.00514
 13   h           x  -0.02672 -0.09571  0.04095  0.05252  0.01260 -0.08841
                  y  -0.01097 -0.30065 -0.13928  0.22893  0.22302  0.07046
                  z   0.02935 -0.01028 -0.01954 -0.04250 -0.00782 -0.00338
 14   h           x   0.02023 -0.06022 -0.00351  0.00250 -0.01654  0.00123
                  y   0.14531 -0.20778 -0.16434  0.32929 -0.24260  0.13279
                  z   0.08034  0.03209 -0.07674 -0.11425  0.01044  0.09645
 15   h           x   0.09082  0.01441 -0.05237 -0.08221 -0.02975  0.07162
                  y   0.20312  0.09560  0.01689 -0.07592 -0.48687 -0.08392
                  z   0.07610  0.02003 -0.08043 -0.09471  0.01903  0.09629
 16   h           x   0.11652  0.05199 -0.08299 -0.14752  0.00074  0.15230
                  y   0.10846  0.27220  0.15239 -0.28436 -0.02180 -0.10013
                  z   0.02033 -0.03507 -0.02586 -0.02222  0.00046  0.00082
 17   h           x  -0.02569 -0.07581  0.01137 -0.03301 -0.02841  0.05139
                  y  -0.13366 -0.15681 -0.01295  0.00045 -0.30554  0.08449
                  z  -0.04270 -0.07398  0.03492  0.00990  0.01159 -0.05068
 18   h           x   0.02322 -0.02817 -0.01624 -0.04051 -0.04132  0.02608
                  y  -0.15780 -0.01935  0.02196 -0.01459 -0.53044  0.03945
                  z  -0.08492 -0.11482  0.05991  0.01780  0.01815 -0.03616
 19   h           x   0.23400  0.04718  0.05536  0.26389  0.00580 -0.42734
                  y  -0.18623 -0.03899 -0.05250  0.03425  0.01847  0.15952
                  z  -0.07520 -0.14237  0.01244  0.04603  0.00359 -0.06691
 20   h           x   0.17061  0.03506  0.01612  0.14541  0.00408 -0.26918
                  y   0.10647  0.06694 -0.10322  0.12510  0.00812 -0.16797
                  z  -0.12879 -0.12521 -0.09306 -0.18280 -0.01059  0.21492
 21   h           x  -0.16315  0.01696  0.18203  0.14719 -0.00351  0.06843
                  y  -0.26038  0.00768 -0.11293  0.01711  0.00707  0.11943
                  z   0.12357  0.01984  0.44174  0.19505 -0.01564  0.27877
 22   h           x  -0.01606 -0.11931  0.48511  0.24786 -0.01370  0.18228
                  y  -0.08555 -0.17058 -0.15859 -0.05361  0.01226 -0.07568
                  z  -0.00127  0.12202 -0.00291  0.01481 -0.00126  0.03011
 23   h           x  -0.26125  0.11743 -0.05504  0.07010  0.00359 -0.07489
                  y   0.27854 -0.01559  0.03163  0.20715  0.03586 -0.20232
                  z  -0.05755  0.37472 -0.36994 -0.03722  0.02133 -0.33729
 24   h           x  -0.39225  0.24239 -0.34297 -0.03570  0.01425 -0.27903
                  y   0.10453  0.19572  0.02300  0.32346  0.03427  0.14900
                  z   0.05209  0.28946  0.01979  0.14749  0.00947  0.09143

reduced mass(g/mol)     4.013    4.297    2.273    3.886    3.990    2.427


       mode              13       14       15       16       17       18

     frequency         295.71   333.81   370.87   398.44   447.83   460.96

     symmetry            a        a        a        a        a        a   

        IR               YES      YES      YES      YES      YES      YES
|dDIP/dQ|   (a.u.)     0.0022   0.0047   0.0063   0.0017   0.0012   0.0011
intensity (km/mol)       8.80    39.95    70.92     5.20     2.74     2.19
intensity (  %   )       4.41    20.02    35.54     2.60     1.37     1.10
 
       RAMAN             YES      YES      YES      YES      YES      YES
 
  1   c           x  -0.00456  0.00317  0.00004  0.00622  0.01102  0.01591
                  y  -0.10025  0.03902  0.02157  0.08302  0.06489  0.08991
                  z  -0.00051  0.00855 -0.00710 -0.00439 -0.08083  0.16086
  2   n           x   0.01821 -0.00985 -0.00065 -0.00222 -0.08881  0.15445
                  y   0.16100 -0.06719  0.05681 -0.03109 -0.01620 -0.03376
                  z  -0.01961  0.02519 -0.00371 -0.00073  0.01882  0.04843
  3   c           x   0.00222  0.00459 -0.00537 -0.01191 -0.01479  0.06574
                  y   0.01215  0.01610 -0.07455 -0.17230 -0.02726 -0.05001
                  z  -0.02014  0.03334  0.01383  0.00464  0.13751 -0.08879
  4   c           x  -0.00216  0.00096  0.00279 -0.01019  0.03036 -0.08238
                  y  -0.07755  0.03310  0.01501 -0.17245  0.06014  0.07589
                  z  -0.01829  0.03395  0.01014  0.00493  0.11809 -0.08146
  5   c           x  -0.01344  0.00955  0.01371 -0.00121  0.07264 -0.14719
                  y  -0.13239  0.02564  0.09554 -0.03854  0.04289  0.06225
                  z  -0.00341  0.00854 -0.00504  0.00152 -0.03478  0.01467
  6   c           x  -0.00998  0.02178  0.00674  0.01276  0.07888 -0.00120
                  y  -0.01847  0.00634 -0.00037  0.23024 -0.02162 -0.02215
                  z  -0.00353  0.01062  0.00282 -0.00860  0.03649  0.01120
  7   c           x  -0.00252  0.00763  0.00602 -0.00985  0.04852  0.02715
                  y  -0.03027 -0.00594  0.05324 -0.12078  0.03844  0.05767
                  z   0.01376 -0.01515 -0.00803  0.00451 -0.06045  0.08777
  8   c           x   0.01228 -0.01096 -0.00310 -0.00598  0.01038 -0.05661
                  y   0.04135 -0.00933 -0.03464 -0.10036 -0.03915 -0.04459
                  z   0.01060 -0.01395 -0.00498  0.00343 -0.05237  0.09274
  9   c           x   0.01701 -0.02095 -0.00622  0.01533 -0.03573 -0.02612
                  y   0.00144  0.01733 -0.02269  0.22870  0.01034  0.01857
                  z  -0.00433  0.01174  0.00423 -0.00920  0.05905  0.00939
 10   c           x  -0.05244  0.05814  0.03659 -0.00451 -0.04820 -0.02578
                  y  -0.00166  0.00529  0.05352 -0.00689 -0.09655 -0.09675
                  z   0.00620 -0.02380 -0.01111  0.00346 -0.01958 -0.11413
 11   c           x   0.02051 -0.07190 -0.04309  0.00486  0.02586  0.02519
                  y   0.03043 -0.00514  0.00530 -0.00228 -0.06394 -0.10326
                  z  -0.02489 -0.03752  0.04837 -0.00262 -0.10997 -0.16861
 12   n           x   0.04399  0.03369 -0.00462  0.00026 -0.01032  0.00300
                  y   0.07357 -0.06341 -0.08342  0.00522  0.05793  0.05649
                  z   0.06143  0.00759 -0.02290  0.00304  0.01519  0.01571
 13   h           x  -0.02917  0.05029  0.02265  0.03629  0.21870 -0.14359
                  y  -0.01733 -0.01125  0.06414  0.60715 -0.02015  0.00045
                  z  -0.00288  0.01012  0.00007 -0.02230  0.03156  0.01589
 14   h           x  -0.00925  0.01511  0.01382 -0.00878  0.07170  0.03939
                  y  -0.05513 -0.02268  0.13929 -0.09706  0.08513  0.11520
                  z   0.02428 -0.03062 -0.01514  0.00457 -0.09846  0.06736
 15   h           x   0.02086 -0.02173 -0.00668 -0.00197 -0.02547 -0.06602
                  y   0.09381 -0.03064 -0.04981 -0.05288 -0.07420 -0.09563
                  z   0.01740 -0.02860 -0.00870  0.00342 -0.10607  0.08355
 16   h           x   0.03759 -0.05237 -0.01740  0.03890 -0.16169  0.10214
                  y   0.02096  0.01064 -0.01901  0.61817  0.00683 -0.01012
                  z  -0.00538  0.01281  0.00420 -0.02286  0.06221  0.00768
 17   h           x  -0.01653  0.00489 -0.07864 -0.00012 -0.24069  0.28078
                  y  -0.40207  0.32759 -0.87501 -0.04864 -0.26372 -0.30571
                  z   0.01279 -0.00002  0.04470  0.00108 -0.00320  0.10413
 18   h           x  -0.00422  0.00488 -0.00284  0.01320 -0.00569  0.04725
                  y  -0.09760  0.06289 -0.00962  0.16852  0.04566  0.08720
                  z  -0.00063  0.00817 -0.00858 -0.00947 -0.17000  0.37565
 19   h           x  -0.11020  0.19067  0.13672 -0.01641 -0.40347  0.02068
                  y   0.10622 -0.10817 -0.09057  0.00807  0.14351 -0.05075
                  z   0.05892 -0.01628 -0.06033  0.00577 -0.10082 -0.03228
 20   h           x  -0.08048  0.11800  0.08767 -0.00748 -0.17473 -0.05705
                  y  -0.07482  0.15270  0.17882 -0.01489 -0.40604 -0.17142
                  z   0.09303 -0.09620 -0.09053  0.02163  0.23108 -0.28101
 21   h           x   0.04125 -0.06863 -0.03728  0.00688  0.00198  0.00050
                  y   0.07571  0.01341  0.02131  0.00170 -0.11201 -0.15505
                  z  -0.00521 -0.20158  0.02390  0.00797 -0.19610 -0.24336
 22   h           x   0.00811 -0.21214 -0.04477  0.01093 -0.07465 -0.07816
                  y  -0.03939  0.03126  0.02342 -0.00788 -0.03335 -0.10043
                  z  -0.02168  0.01472  0.04958 -0.00493 -0.07313 -0.13277
 23   h           x  -0.04941 -0.10098 -0.04514  0.00473  0.03129  0.05135
                  y  -0.17727 -0.44608 -0.20776  0.01916  0.19265  0.21162
                  z  -0.42129 -0.46136 -0.07035  0.00834  0.00758  0.03556
 24   h           x  -0.27866 -0.28307 -0.05154  0.00423  0.00778  0.06090
                  y   0.58703  0.37640 -0.13931  0.01195  0.23486  0.30730
                  z   0.20052  0.13863 -0.01306  0.00228  0.02415  0.01824

reduced mass(g/mol)     1.975    1.352    1.470    3.210    2.390    3.432


       mode              19       20       21       22       23       24

     frequency         523.95   546.84   563.81   619.54   684.43   710.89

     symmetry            a        a        a        a        a        a   

        IR               YES      YES      YES      YES      YES      YES
|dDIP/dQ|   (a.u.)     0.0008   0.0017   0.0013   0.0008   0.0010   0.0024
intensity (km/mol)       1.02     5.12     3.17     1.17     1.65    10.05
intensity (  %   )       0.51     2.57     1.59     0.59     0.83     5.03
 
       RAMAN             YES      YES      YES      YES      YES      YES
 
  1   c           x  -0.12499  0.07920  0.11267 -0.01613  0.08828 -0.00065
                  y  -0.04770  0.06625 -0.14381 -0.11911 -0.01555  0.00035
                  z   0.00166 -0.01573 -0.06898  0.05047  0.10089  0.00478
  2   n           x  -0.07490  0.05849  0.11359 -0.00411 -0.00455  0.00194
                  y   0.01405 -0.12382  0.09159  0.11095 -0.00299 -0.05461
                  z   0.01341 -0.00557 -0.05403  0.04337  0.19704  0.00244
  3   c           x  -0.00871  0.06143  0.11608 -0.04324 -0.05695  0.01361
                  y   0.02759  0.12032 -0.07172 -0.14597  0.06136  0.26980
                  z   0.03511  0.02074  0.07545 -0.00214  0.10786 -0.02526
  4   c           x  -0.10690  0.00274 -0.02324  0.01781  0.09562 -0.02437
                  y  -0.05975 -0.06242 -0.04333 -0.01082 -0.05628 -0.20660
                  z   0.05210  0.01067  0.03756 -0.00181  0.03310  0.00702
  5   c           x  -0.17646  0.04471  0.03725  0.02415  0.02259  0.01106
                  y   0.03669  0.06879  0.03895  0.25064 -0.01223  0.10521
                  z  -0.05324 -0.03507 -0.10886  0.02144 -0.01324 -0.00131
  6   c           x   0.16178  0.01971  0.08790 -0.04397 -0.10217 -0.01301
                  y   0.03355  0.17927 -0.05083  0.03032 -0.00284 -0.10903
                  z  -0.09933  0.08897  0.19050 -0.03861  0.04672 -0.02146
  7   c           x   0.25596 -0.06812 -0.00519 -0.04159 -0.18479  0.01159
                  y  -0.09257 -0.23997  0.05836 -0.06929  0.03329  0.03375
                  z   0.00949  0.02679  0.04217 -0.01644 -0.08505  0.00306
  8   c           x   0.15230 -0.09391 -0.20824  0.05172  0.13222 -0.01412
                  y   0.06673  0.26103 -0.04798  0.05744 -0.03228 -0.12680
                  z   0.02788  0.00406  0.04288 -0.02206 -0.09573  0.01233
  9   c           x   0.01740 -0.07972 -0.15043  0.03609  0.12544 -0.00939
                  y  -0.04316 -0.17848  0.05000 -0.08554  0.01217  0.00655
                  z   0.20655 -0.03218 -0.01380 -0.00987 -0.08021  0.01690
 10   c           x  -0.11127 -0.00669 -0.06940  0.03576 -0.10787  0.02928
                  y   0.09131  0.00846  0.09355 -0.03119  0.09588  0.00093
                  z  -0.17610 -0.03865 -0.13975  0.01940 -0.18388  0.00874
 11   c           x  -0.02158  0.00042 -0.02374  0.01790 -0.03964  0.01539
                  y  -0.00554 -0.02016  0.00985 -0.03860 -0.04309 -0.01278
                  z  -0.00680 -0.01737  0.01644 -0.03125 -0.08749  0.00633
 12   n           x   0.00124 -0.00609 -0.00503 -0.00784 -0.00795 -0.00554
                  y  -0.01857 -0.00631 -0.02301  0.00301 -0.03198 -0.00201
                  z   0.00244 -0.00065  0.00173 -0.00321  0.00845 -0.00088
 13   h           x   0.19678  0.00906  0.09663 -0.02136  0.05453 -0.02015
                  y   0.03813  0.10673  0.02820  0.24135 -0.07996  0.13339
                  z  -0.09790  0.09110  0.18713 -0.04698  0.04217 -0.02957
 14   h           x   0.22409 -0.03390  0.10602 -0.06160 -0.23722  0.02571
                  y  -0.14130 -0.44718  0.12954  0.08728 -0.02207  0.35660
                  z   0.06933 -0.05768 -0.16420  0.03522  0.01113  0.00380
 15   h           x   0.04435 -0.07246 -0.22466  0.08312  0.24566  0.01694
                  y   0.14072  0.39190 -0.01772  0.21082 -0.04076  0.54414
                  z  -0.16305  0.02210  0.01312  0.00808  0.09275 -0.03035
 16   h           x   0.03935 -0.09347 -0.15927  0.03313  0.00674  0.02727
                  y  -0.01139 -0.20732  0.14410  0.10624  0.01370  0.54162
                  z   0.20244 -0.02963 -0.01453 -0.01667 -0.08051 -0.00175
 17   h           x  -0.12765  0.01388  0.04704  0.05464 -0.00858  0.00609
                  y   0.10873 -0.48070  0.45300  0.38059 -0.02028 -0.13984
                  z  -0.00572  0.00886 -0.09974  0.03951  0.19992  0.00999
 18   h           x  -0.11827  0.08581  0.11111 -0.06102  0.09788 -0.01152
                  y  -0.07640  0.08984 -0.27614 -0.63539  0.11457 -0.14126
                  z   0.08848  0.00976 -0.00402  0.06351  0.09774  0.01636
 19   h           x   0.10166 -0.11139 -0.09725 -0.10029 -0.00469 -0.07576
                  y  -0.05238  0.03330  0.04370  0.01320  0.02274  0.03056
                  z  -0.12579 -0.10674 -0.20865 -0.05803 -0.16338 -0.05553
 20   h           x  -0.05647 -0.03665 -0.05742 -0.01977 -0.06190 -0.00860
                  y   0.22549 -0.06566  0.12040 -0.16456  0.20801 -0.09206
                  z  -0.38135  0.03445 -0.07286  0.01329 -0.21531  0.03740
 21   h           x   0.02840 -0.00292  0.01731 -0.02007  0.02325 -0.00702
                  y   0.09320 -0.02734  0.08903 -0.10958  0.06936 -0.05165
                  z   0.25712 -0.01953  0.24627 -0.23048  0.32763 -0.12709
 22   h           x   0.17693 -0.00673  0.15164 -0.15215  0.26773 -0.09648
                  y  -0.21794 -0.03239 -0.18105  0.09039 -0.35767  0.06672
                  z  -0.08756 -0.01581 -0.05498  0.03354 -0.20994  0.04838
 23   h           x  -0.00469  0.00076 -0.02462  0.00996 -0.00367  0.00179
                  y  -0.04399  0.01543 -0.09019  0.06306 -0.01646  0.02167
                  z   0.08192  0.00459  0.04085 -0.04374  0.12394 -0.03399
 24   h           x   0.07200 -0.00053  0.03047 -0.03727  0.11903 -0.03926
                  y  -0.08516  0.01161 -0.12148  0.06494  0.11283 -0.02297
                  z  -0.02624 -0.00086 -0.01878  0.01229 -0.01894  0.00821

reduced mass(g/mol)     4.500    4.152    3.967    2.693    3.970    2.810


       mode              25       26       27       28       29       30

     frequency         714.52   746.39   757.28   805.30   818.05   835.24

     symmetry            a        a        a        a        a        a   

        IR               YES      YES      YES      YES      YES      YES
|dDIP/dQ|   (a.u.)     0.0065   0.0021   0.0024   0.0006   0.0106   0.0017
intensity (km/mol)      75.92     7.80    10.52     0.54   199.58     5.33
intensity (  %   )      38.04     3.91     5.27     0.27   100.00     2.67
 
       RAMAN             YES      YES      YES      YES      YES      YES
 
  1   c           x   0.00313 -0.02805  0.20797 -0.00671  0.00391 -0.05338
                  y   0.02443  0.16285  0.09105  0.00461 -0.00321  0.04064
                  z   0.00214 -0.01033 -0.01993  0.00410  0.01141  0.02995
  2   n           x   0.00297 -0.02517  0.08382 -0.00338  0.00730 -0.02499
                  y  -0.00215 -0.01850 -0.01231 -0.01100  0.00001  0.00378
                  z   0.00131 -0.01948  0.06969  0.00378  0.02975  0.02829
  3   c           x  -0.00090  0.01803 -0.06216  0.00361 -0.00157 -0.00341
                  y   0.02480 -0.00036 -0.01769  0.04873 -0.00152 -0.01719
                  z  -0.00923  0.02231 -0.05875 -0.00065  0.02209 -0.00698
  4   c           x  -0.01633  0.02006 -0.04592 -0.00451 -0.00652 -0.00333
                  y  -0.15109  0.01921  0.05523 -0.05707  0.00395  0.03237
                  z   0.00637 -0.01646  0.06530 -0.00138 -0.00620 -0.02574
  5   c           x   0.00729 -0.03161  0.10151 -0.00269 -0.03183 -0.01286
                  y   0.06947 -0.06903 -0.10532  0.01679 -0.01325 -0.08709
                  z  -0.00168  0.01594 -0.05886  0.00028 -0.02679  0.02248
  6   c           x  -0.00121  0.03034 -0.11877 -0.00365 -0.00108  0.01890
                  y   0.04440 -0.01437 -0.01088 -0.10196  0.00387  0.01838
                  z  -0.01636  0.07019 -0.23509  0.00740  0.02688  0.00365
  7   c           x   0.01060  0.00095 -0.02779 -0.00054 -0.02117  0.03599
                  y   0.09295 -0.00771 -0.01673 -0.04573  0.00119 -0.00929
                  z  -0.00195  0.00523 -0.02979  0.00332 -0.01010  0.02433
  8   c           x  -0.00204  0.00663 -0.02171  0.00474  0.02686 -0.01663
[...]
                  z   0.02022 -0.14860 -0.04971  0.00741 -0.05788 -0.69106
 22   h           x  -0.04558 -0.29291 -0.17228  0.02902  0.10795  0.63315
                  y   0.24582 -0.48061 -0.48775  0.08630  0.05991 -0.18831
                  z   0.05708  0.13654  0.03583 -0.00483 -0.04135 -0.19682
 23   h           x  -0.05467 -0.15880 -0.05403  0.00926  0.02194 -0.00353
                  y  -0.08624 -0.29103 -0.10315  0.01679  0.04646  0.00306
                  z   0.04231  0.22416  0.10034 -0.00991 -0.02013  0.00788
 24   h           x   0.13098  0.25955  0.04931 -0.00833 -0.04028  0.00852
                  y   0.08566  0.26048  0.07858 -0.00597 -0.03755  0.01621
                  z  -0.05583 -0.12864 -0.03233  0.00441  0.02100 -0.00099

reduced mass(g/mol)     1.518    1.283    4.367    2.612    1.118    1.124


       mode              55       56       57       58       59       60

     frequency        1443.36  1481.80  1544.63  1570.58  1615.63  1616.79

     symmetry            a        a        a        a        a        a   

        IR               YES      YES      YES      YES      YES      YES
|dDIP/dQ|   (a.u.)     0.0028   0.0012   0.0014   0.0005   0.0026   0.0017
intensity (km/mol)      14.05     2.52     3.73     0.37    12.23     5.28
intensity (  %   )       7.04     1.26     1.87     0.19     6.13     2.64
 
       RAMAN             YES      YES      YES      YES      YES      YES
 
  1   c           x  -0.00319 -0.02630 -0.10740 -0.05484  0.00918 -0.00763
                  y  -0.00339  0.00281  0.02162  0.00839 -0.00385  0.00186
                  z  -0.08763  0.00820  0.35267  0.10121 -0.06512  0.03913
  2   n           x  -0.03513  0.11542 -0.03453  0.08485 -0.04813  0.02959
                  y   0.00562 -0.00706 -0.00078 -0.00532  0.00343 -0.00230
                  z   0.06880  0.02636 -0.06019  0.01973  0.00278 -0.00015
  3   c           x   0.11881 -0.14830  0.18812 -0.06298  0.17077 -0.10080
                  y  -0.01342  0.00800 -0.00786 -0.00351 -0.00869  0.00497
                  z  -0.15443 -0.03545  0.11702 -0.20814  0.06702 -0.04157
  4   c           x   0.09575  0.15393  0.06769 -0.20492 -0.11433  0.06619
                  y  -0.00285 -0.01197 -0.00366  0.02254  0.00713 -0.00387
                  z   0.09300 -0.06102  0.02149  0.26283 -0.01000  0.00853
  5   c           x  -0.02329 -0.06876  0.04917  0.11587  0.00810 -0.00314
                  y   0.00210  0.00424 -0.02156 -0.01423  0.00195 -0.00113
                  z   0.03637 -0.00852 -0.42248 -0.15578  0.05722 -0.03913
  6   c           x  -0.18823 -0.06195 -0.13703 -0.09304 -0.15408  0.08980
                  y   0.01339  0.00690  0.00565  0.01172  0.00936 -0.00532
                  z   0.04066  0.07585 -0.08799  0.16015 -0.02039  0.01301
  7   c           x   0.06115  0.14957 -0.00358  0.14676  0.06169 -0.03555
                  y  -0.00408 -0.01118  0.00420 -0.02003 -0.00430  0.00243
                  z  -0.00960 -0.03854  0.11245 -0.29442 -0.00230  0.00003
  8   c           x   0.09874 -0.18055 -0.00781 -0.01306 -0.08523  0.05028
                  y  -0.00576  0.00527 -0.00280  0.00801  0.00338 -0.00196
                  z   0.01783 -0.17936 -0.09028  0.20326 -0.06479  0.03881
  9   c           x  -0.21709  0.03423 -0.05694  0.16343  0.14274 -0.08398
                  y   0.01311  0.00192  0.00432 -0.01487 -0.00849  0.00492
                  z  -0.02087  0.11747  0.02442 -0.13027  0.02001 -0.01242
 10   c           x  -0.00699  0.01248  0.01955 -0.01325 -0.00305  0.00337
                  y  -0.00580 -0.00236  0.00180  0.00301  0.00004 -0.00195
                  z  -0.00857  0.00521  0.10582  0.03449 -0.01073  0.00610
 11   c           x   0.01682  0.00283 -0.00434 -0.00242 -0.00240 -0.00249
                  y  -0.00165  0.00341  0.01155  0.00105  0.01793  0.02314
                  z  -0.02314 -0.00199  0.00847  0.00328  0.01109  0.01346
 12   n           x   0.00271 -0.00078  0.00038  0.00144 -0.04005 -0.04409
                  y   0.00045 -0.00023 -0.00144  0.00025 -0.01940 -0.02153
                  z  -0.00166 -0.00020 -0.00128 -0.00173  0.04422  0.04896
 13   h           x   0.53432  0.14703  0.20484  0.11075  0.16370 -0.09385
                  y  -0.03385 -0.00677 -0.01795 -0.00059 -0.01218  0.00695
                  z   0.00848  0.08802 -0.11728  0.16721 -0.03809  0.02336
 14   h           x   0.13461 -0.05762  0.16680 -0.20666  0.04126 -0.02490
                  y  -0.01382  0.01819 -0.01758  0.02784 -0.00061  0.00024
                  z  -0.12340  0.39932 -0.20994  0.38760  0.04619 -0.02583
 15   h           x   0.13618  0.27091  0.10322 -0.21469  0.01763 -0.01058
                  y  -0.00601  0.00312 -0.00449  0.00888  0.00179 -0.00130
                  z   0.05284  0.58905  0.07508 -0.11199  0.11420 -0.06716
 16   h           x   0.53638  0.06653  0.17253 -0.22595 -0.16682  0.10029
                  y  -0.03490  0.00010 -0.00749  0.01113  0.01253 -0.00698
                  z  -0.03261  0.13969  0.02285 -0.13276  0.02703 -0.01646
 17   h           x  -0.12295 -0.37912 -0.03871 -0.33652  0.16160 -0.09762
                  y   0.00646  0.02236  0.00046  0.01869 -0.00820  0.00582
                  z   0.04594 -0.11563 -0.05787 -0.10205  0.06723 -0.03879
 18   h           x   0.04473 -0.04911 -0.28755 -0.11602  0.04140 -0.02544
                  y   0.00748 -0.00120 -0.00045  0.00071  0.00640  0.00486
                  z   0.23234 -0.10860 -0.48525 -0.14543  0.09818 -0.05645
 19   h           x  -0.04195 -0.01589  0.02673  0.03709  0.00057  0.00602
                  y   0.01263 -0.01236  0.04836  0.02774 -0.00485  0.00611
                  z  -0.02496 -0.02769  0.14415  0.09475 -0.00933  0.01471
 20   h           x   0.01266  0.01984  0.01052 -0.02299 -0.00809 -0.00091
                  y   0.04672  0.02024 -0.02767 -0.03324 -0.01198 -0.00979
                  z  -0.01609  0.06862 -0.13824 -0.13172 -0.00766 -0.00512
 21   h           x   0.00811  0.00019 -0.01562 -0.00297 -0.02600 -0.03172
                  y  -0.03397 -0.00517 -0.00812  0.00319 -0.04201 -0.04935
                  z   0.24120  0.00520 -0.07356 -0.02079  0.01594  0.00869
 22   h           x  -0.22073 -0.01117  0.06385  0.02181 -0.02564 -0.02043
                  y   0.07368 -0.01775 -0.08597 -0.01368 -0.03864 -0.05475
                  z   0.06954  0.00252 -0.01923 -0.00554  0.01499  0.01493
 23   h           x   0.00085 -0.00186 -0.00060 -0.00047  0.03345  0.03630
                  y  -0.00399 -0.00368  0.00126 -0.00258  0.15770  0.17233
                  z  -0.00001  0.00417  0.01799  0.02170 -0.58679 -0.64256
 24   h           x  -0.00548 -0.00012 -0.01994 -0.02241  0.59433  0.64963
                  y  -0.00519  0.00034 -0.00723 -0.00241 -0.01031 -0.01835
                  z   0.00073 -0.00024  0.00833  0.00758 -0.18063 -0.19695

reduced mass(g/mol)     2.907    3.062    5.858    5.948    2.361    1.534


       mode              61       62       63       64       65       66

     frequency        2944.50  2965.81  2987.14  3011.15  3098.67  3103.94

     symmetry            a        a        a        a        a        a   

        IR               YES      YES      YES      YES      YES      YES
|dDIP/dQ|   (a.u.)     0.0044   0.0044   0.0040   0.0051   0.0013   0.0012
intensity (km/mol)      34.90    34.99    28.78    47.10     2.92     2.56
intensity (  %   )      17.49    17.53    14.42    23.60     1.46     1.28
 
       RAMAN             YES      YES      YES      YES      YES      YES
 
  1   c           x  -0.00035 -0.00009  0.00040  0.00024  0.00017 -0.00033
                  y  -0.00014  0.00008 -0.00028 -0.00014 -0.00004  0.00002
                  z  -0.00062 -0.00012 -0.00035  0.00006 -0.00042  0.00005
  2   n           x   0.00024  0.00016  0.00013 -0.00001  0.00019 -0.00014
                  y   0.00001  0.00000 -0.00003  0.00000 -0.00001  0.00000
                  z   0.00021  0.00013 -0.00013 -0.00009 -0.00002 -0.00004
  3   c           x  -0.00009 -0.00004 -0.00007  0.00004  0.00165  0.00229
                  y   0.00001  0.00001 -0.00002  0.00001 -0.00008 -0.00018
                  z   0.00020  0.00011  0.00024  0.00013  0.00052 -0.00013
  4   c           x  -0.00062 -0.00020  0.00010  0.00011 -0.00097  0.00146
                  y   0.00021 -0.00002  0.00024  0.00003  0.00008 -0.00009
                  z  -0.00009  0.00003  0.00002  0.00011  0.00045  0.00018
  5   c           x  -0.00003  0.00019 -0.00115 -0.00015 -0.00020  0.00014
                  y  -0.00041 -0.00008  0.00001  0.00011  0.00001 -0.00001
                  z  -0.00026 -0.00094  0.00074  0.00056  0.00001  0.00007
  6   c           x   0.00002 -0.00004  0.00002 -0.00001 -0.00258 -0.00327
                  y  -0.00002  0.00000  0.00000  0.00000 -0.00152 -0.00177
                  z   0.00007  0.00004 -0.00003 -0.00008 -0.04661 -0.05466
  7   c           x   0.00000  0.00003 -0.00005 -0.00010  0.03631  0.01631
                  y   0.00002  0.00000  0.00001  0.00001 -0.00166 -0.00069
                  z   0.00007  0.00000  0.00002 -0.00003  0.01964  0.01030
  8   c           x   0.00002  0.00008 -0.00004 -0.00010 -0.03378  0.02445
                  y  -0.00004 -0.00001 -0.00002  0.00000  0.00289 -0.00213
                  z  -0.00013 -0.00002 -0.00006  0.00007  0.02089 -0.01627
  9   c           x   0.00014 -0.00011  0.00010 -0.00005 -0.00024  0.00004
                  y  -0.00004 -0.00006 -0.00004 -0.00010 -0.00137  0.00194
                  z  -0.00040 -0.00037 -0.00038 -0.00104 -0.03897  0.05488
 10   c           x   0.00963  0.02566 -0.07769 -0.02996  0.00028 -0.00049
                  y  -0.05399 -0.00512 -0.00714  0.00433  0.00012 -0.00020
                  z   0.03997 -0.00356  0.02935  0.00520 -0.00014  0.00031
 11   c           x  -0.00376 -0.03287  0.01396 -0.07275  0.00050 -0.00068
                  y   0.00032  0.01785 -0.00364  0.02493 -0.00020  0.00029
                  z  -0.01167  0.05283  0.03370 -0.04377  0.00013 -0.00011
 12   n           x   0.00023  0.00007  0.00003  0.00192 -0.00004  0.00006
                  y   0.00008 -0.00100 -0.00017 -0.00083  0.00000 -0.00002
                  z  -0.00003 -0.00062 -0.00107  0.00097 -0.00001  0.00000
 13   h           x   0.00010  0.00004 -0.00009 -0.00001  0.02421  0.02817
                  y  -0.00004 -0.00003 -0.00009 -0.00004  0.01832  0.02123
                  z  -0.00059 -0.00048 -0.00040  0.00044  0.54745  0.63478
 14   h           x   0.00000 -0.00011  0.00068  0.00094 -0.44203 -0.20355
                  y   0.00007  0.00004  0.00000  0.00000  0.02040  0.00936
                  z  -0.00011 -0.00013  0.00023  0.00038 -0.23139 -0.10862
 15   h           x   0.00020 -0.00001  0.00051  0.00175  0.40990 -0.29886
                  y  -0.00008 -0.00001 -0.00004 -0.00012 -0.03482  0.02544
                  z   0.00000  0.00011 -0.00031 -0.00112 -0.24754  0.18210
 16   h           x   0.00102  0.00020  0.00127  0.00097  0.00686 -0.00939
                  y   0.00004  0.00046 -0.00004  0.00069  0.01588 -0.02211
                  z   0.00496  0.00433  0.00478  0.01188  0.46060 -0.64142
 17   h           x   0.00022 -0.00003  0.00005  0.00020 -0.00175 -0.00294
                  y  -0.00007 -0.00017  0.00022  0.00007  0.00009  0.00034
                  z   0.00105  0.00084 -0.00015 -0.00078  0.00013  0.00107
 18   h           x   0.00378  0.00013 -0.00176 -0.00173 -0.00420 -0.00004
                  y  -0.00078 -0.00037  0.00072  0.00045  0.00036  0.00004
                  z   0.00121  0.00066 -0.00177 -0.00080  0.00035  0.00005
 19   h           x   0.43674 -0.03591  0.30581  0.06008 -0.00153  0.00274
                  y   0.45006 -0.04038  0.34351  0.07078 -0.00210  0.00347
                  z  -0.48539  0.04917 -0.35827 -0.07210  0.00220 -0.00369
 20   h           x  -0.54773 -0.27047  0.63553  0.29255 -0.00139  0.00173
                  y   0.20351  0.10646 -0.25633 -0.11831  0.00057 -0.00087
                  z   0.01156 -0.00010  0.00119 -0.00268  0.00021 -0.00057
 21   h           x  -0.00899  0.63196 -0.04283  0.67569 -0.00509  0.00714
                  y   0.00287 -0.24849  0.01688 -0.27194  0.00236 -0.00333
                  z  -0.00317 -0.01079  0.00763 -0.02940  0.00040 -0.00051
 22   h           x   0.05228 -0.23107 -0.14022  0.18956 -0.00076  0.00075
                  y  -0.01267  0.04073  0.02350 -0.02649  0.00016 -0.00023
                  z   0.14740 -0.62333 -0.39960  0.55591 -0.00176  0.00164
 23   h           x  -0.00256 -0.01428  0.00275 -0.01657  0.00021 -0.00036
                  y  -0.00042  0.00458  0.00157  0.01293 -0.00012  0.00028
                  z   0.00073  0.00104 -0.00028 -0.00122  0.00010 -0.00008
 24   h           x  -0.00078  0.00438  0.00375 -0.00557  0.00003 -0.00003
                  y   0.00060  0.00033  0.00265 -0.00407  0.00007  0.00018
                  z  -0.00355  0.01334  0.00976 -0.01074  0.00009 -0.00008

reduced mass(g/mol)     1.060    1.062    1.099    1.105    1.085    1.088


       mode              67       68       69       70       71       72

     frequency        3114.37  3126.34  3175.83  3388.75  3472.13  3588.63

     symmetry            a        a        a        a        a        a   

        IR               YES      YES      YES      YES      YES      YES
|dDIP/dQ|   (a.u.)     0.0037   0.0030   0.0007   0.0008   0.0005   0.0061
intensity (km/mol)      24.63    15.82     0.93     1.28     0.52    66.38
intensity (  %   )      12.34     7.93     0.46     0.64     0.26    33.26
 
       RAMAN             YES      YES      YES      YES      YES      YES
 
  1   c           x  -0.00021 -0.00033  0.08762 -0.00028 -0.00004  0.00258
                  y   0.00001  0.00002 -0.00792 -0.00007 -0.00007 -0.00020
                  z  -0.00006  0.00006 -0.01520  0.00019  0.00009  0.00097
  2   n           x   0.00023 -0.00013 -0.00163 -0.00001 -0.00001  0.01946
                  y  -0.00001  0.00000  0.00013  0.00005  0.00003 -0.00525
                  z   0.00019 -0.00006 -0.00075  0.00000  0.00002 -0.07149
  3   c           x  -0.00226  0.00168 -0.00184  0.00004  0.00001 -0.00181
                  y   0.00010 -0.00011  0.00014  0.00000  0.00000  0.00009
                  z  -0.00107  0.00024  0.00009  0.00000 -0.00002 -0.00014
  4   c           x   0.00189  0.00125 -0.00102  0.00002  0.00002  0.00051
                  y  -0.00017 -0.00010  0.00004 -0.00001  0.00000 -0.00001
                  z  -0.00106 -0.00036 -0.00035  0.00001  0.00001  0.00103
  5   c           x  -0.00009  0.00005 -0.00190  0.00000  0.00005 -0.00073
                  y   0.00002 -0.00001  0.00032 -0.00001 -0.00004  0.00006
                  z   0.00026  0.00008  0.00511 -0.00032 -0.00017  0.00106
  6   c           x   0.00070  0.00086  0.00038 -0.00002  0.00001 -0.00028
                  y   0.00144 -0.00098 -0.00002  0.00000  0.00000  0.00003
                  z   0.04084 -0.02557  0.00029  0.00000  0.00001  0.00027
  7   c           x   0.04222 -0.05053 -0.00023  0.00001 -0.00001  0.00023
                  y  -0.00207  0.00231  0.00002  0.00000  0.00000 -0.00002
                  z   0.01881 -0.02718  0.00014 -0.00001  0.00001 -0.00032
  8   c           x  -0.03713 -0.04894 -0.00006  0.00000 -0.00001  0.00007
                  y   0.00303  0.00418 -0.00001 -0.00001  0.00001  0.00000
                  z   0.01876  0.03022 -0.00028  0.00001 -0.00001  0.00032
  9   c           x   0.00180  0.00259  0.00028 -0.00001  0.00001 -0.00031
                  y   0.00153  0.00083  0.00000 -0.00001  0.00000  0.00002
                  z   0.04631  0.02784  0.00036  0.00002 -0.00003 -0.00020
 10   c           x  -0.00031 -0.00009  0.00035  0.00038 -0.00025 -0.00003
                  y  -0.00013 -0.00009 -0.00011  0.00024  0.00025  0.00012
                  z   0.00018  0.00011 -0.00008 -0.00013 -0.00001 -0.00002
 11   c           x  -0.00050 -0.00017  0.00004 -0.00117  0.00235  0.00000
                  y   0.00020  0.00010 -0.00006  0.00255 -0.00116 -0.00006
                  z  -0.00009  0.00003 -0.00012  0.00211  0.00185 -0.00003
 12   n           x   0.00005  0.00002 -0.00012 -0.03156  0.06279  0.00002
                  y   0.00000 -0.00003  0.00007  0.00690 -0.01909  0.00004
                  z   0.00000  0.00000  0.00020  0.04511  0.04681  0.00001
 13   h           x  -0.01821  0.00908 -0.00017  0.00001  0.00000  0.00109
                  y  -0.01541  0.00943 -0.00008  0.00001  0.00001 -0.00019
                  z  -0.45667  0.27629 -0.00270  0.00005 -0.00003 -0.00189
 14   h           x  -0.47130  0.56611  0.00131 -0.00001 -0.00001 -0.00004
                  y   0.02196 -0.02608 -0.00005  0.00002 -0.00001  0.00000
                  z  -0.24239  0.29799  0.00064 -0.00001  0.00001 -0.00013
 15   h           x   0.40961  0.54771  0.00003  0.00002 -0.00003  0.00014
                  y  -0.03477 -0.04670  0.00000  0.00001  0.00000 -0.00003
                  z  -0.24240 -0.33204  0.00014  0.00000  0.00001 -0.00007
 16   h           x  -0.00961 -0.00779  0.00010 -0.00001 -0.00004  0.00045
                  y  -0.01790 -0.01030 -0.00012  0.00007 -0.00008  0.00001
                  z  -0.52306 -0.30475 -0.00376 -0.00012  0.00034  0.00038
 17   h           x   0.00138 -0.00115  0.01004  0.00002  0.00002 -0.26420
                  y  -0.00009  0.00013 -0.00153  0.00007  0.00005  0.07204
                  z  -0.00040  0.00045 -0.01210 -0.00018 -0.00006  0.95882
 18   h           x   0.00254  0.00095 -0.98032  0.00270  0.00013 -0.01154
                  y  -0.00018 -0.00006  0.08854 -0.00045  0.00012  0.00106
                  z   0.00013 -0.00009  0.15108 -0.00073 -0.00005  0.00014
 19   h           x   0.00178  0.00097  0.00020  0.00180 -0.00046 -0.00013
                  y   0.00231  0.00105  0.00067  0.00226 -0.00044 -0.00037
                  z  -0.00250 -0.00119 -0.00214 -0.00032  0.00066  0.00025
 20   h           x   0.00143 -0.00059 -0.00386 -0.00033  0.00170  0.00067
                  y  -0.00067  0.00004  0.00115 -0.00286  0.00120 -0.00029
                  z  -0.00023 -0.00030 -0.00170 -0.00064  0.00050  0.00020
 21   h           x   0.00514  0.00205 -0.00085  0.01449 -0.01550  0.00000
                  y  -0.00237 -0.00090  0.00057 -0.00768  0.00574 -0.00008
                  z  -0.00037 -0.00010  0.00029  0.00225 -0.00122 -0.00013
 22   h           x   0.00060 -0.00007 -0.00016 -0.00645 -0.00674  0.00030
                  y  -0.00014 -0.00009 -0.00031  0.00050  0.00254  0.00017
                  z   0.00133 -0.00030  0.00014 -0.01008 -0.01483  0.00069
 23   h           x  -0.00026 -0.00013  0.00182  0.67591 -0.67078  0.00006
                  y   0.00016  0.00018 -0.00087 -0.19995  0.21675 -0.00014
                  z  -0.00008  0.00003 -0.00038  0.02132  0.01462  0.00001
 24   h           x  -0.00006  0.00001 -0.00034 -0.23740 -0.20622 -0.00026
                  y   0.00005  0.00022 -0.00002  0.07943  0.05110 -0.00022
                  z  -0.00008 -0.00002 -0.00227 -0.66069 -0.67131 -0.00017

reduced mass(g/mol)     1.093    1.097    1.096    1.048    1.093    1.080
 

         **************************************************************
         *                                                            *
         *  zero point VIBRATIONAL energy  :      0.1975979  Hartree  *
         *    SCF-energy                   :   -497.3235043           *
         *    SCF + E(vib0)                :   -497.1259064           *
         *                                                            *
         **************************************************************




 time elapsed for vibrational analysis     0.15 sec


    ------------------------------------------------------------------------
         total  cpu-time : 33 minutes and 15 seconds
         total wall-time : 33 minutes and 15 seconds
    ------------------------------------------------------------------------


   ****  force : all done  ****


    2010-01-25 16:30:18.585 

