

                             r i m p 2 - program

                          by F. Weigend and M. Haeser 

                            quantum chemistry group
                             university  karlsruhe
                                   germany




                                                 
                                 References:     
                                                 
              First Derivatives and global Consistency         
              F. Weigend and M. Haeser                         
              Theo Chem. Acc. 97: 331 (1997)                   
                                                           
              Optimized Auxialiary Basis Sets and Demonstration
              of Efficiency                                    
              F. Weigend, M. Haeser, H. Patzelt and. R Ahlrichs
              Chem. Phys. Lett. 294: 143 (1998)                
                                         


 operating system is UNIX !
 hostname is         asua069.service

 rimp2 (asua069.service) : TURBOMOLE V6.5( 18161 ) 13 Mar 2013 at 10:19:07
 Copyright (C) 2013 TURBOMOLE GmbH, Karlsruhe


    2016-07-27 10:23:27.772 



              +--------------------------------------------------+
              | Atomic coordinate, charge and isotop information |
              +--------------------------------------------------+

                    atomic coordinates            atom    charge  isotop
          8.17410487    3.96063921   -0.72053368    c      6.000     0
          9.89471942    3.81955225   -1.87115012    h      1.000     0
          8.53354968    2.73498173    0.88049899    h      1.000     0
          5.93005509    2.93962018   -2.16507813    c      6.000     0
          5.62193525    3.39912598   -4.75543912    c      6.000     0
          6.59264977    4.37205148   -6.26820269    h      1.000     0
          3.82318053    1.17034519   -1.36974909    c      6.000     0
          3.37231077    2.26158644   -5.56579148    n      7.000     0
          2.66432487    1.87746181   -7.35653376    h      1.000     0
          2.31402634    0.99136923   -3.55408353    c      6.000     0
          2.81992492   -0.08080469    0.84812799    c      6.000     0
         -0.10797895   -0.20420381   -3.93200986    c      6.000     0
         -1.40176105   -0.25751298   -5.95320424    o      8.000     0
          0.76138956   -1.53886068    0.63109294    c      6.000     0
          0.03325918   -2.75089323    1.99912238    h      1.000     0
         -0.71129292   -1.67645164   -1.61301354    c      6.000     0
         -2.37428971   -3.65760272   -1.82180938    n      7.000     0
         -2.92905661   -3.78211678   -3.75524487    h      1.000     0
         -3.17383283   -5.48712218   -0.28497070    c      6.000     0
         -2.21562830   -5.78004863    1.52147520    h      1.000     0
         -3.49888463   -0.82118049    2.64145919    h      1.000     0
         -4.40292961   -7.11672751   -0.93497980    h      1.000     0
         -8.44206804    0.56225022    6.46072798    c      6.000     0
         -8.05053568    1.18907237    8.40106098    h      1.000     0
         -9.87689930   -0.94769766    6.47371040    h      1.000     0
         -5.99194362   -0.73483890    5.19115328    c      6.000     0
         -4.94386371    0.34506399    3.13429976    o      8.000     0
         -5.26613761   -2.81531399    5.87022636    o      8.000     0
          8.04367598    5.91722385   -0.03926851    h      1.000     0
          3.95727549   -0.03560244    2.56107024    h      1.000     0
         -9.14920356    2.14661550    5.34709348    h      1.000     0
 
       center of nuclear mass  :   -0.17022461   -0.09697589   -0.46190283
       center of nuclear charge:   -0.16295672   -0.08842836   -0.39746107

              +--------------------------------------------------+
              |               basis set information              |
              +--------------------------------------------------+

              we will work with the 1s 3p 5d 7f 9g ... basis set
              ...i.e. with spherical basis functions...

   type   atoms  prim   cont   basis
   ---------------------------------------------------------------------------
    c       12     46     31   TZVPP   [5s3p2d1f|11s6p2d1f]
    h       14     16     14   TZVPP   [3s2p1d|5s2p1d]
    n        2     46     31   TZVPP   [5s3p2d1f|11s6p2d1f]
    o        3     46     31   TZVPP   [5s3p2d1f|11s6p2d1f]
   ---------------------------------------------------------------------------
   total:   31   1006    723
   ---------------------------------------------------------------------------

   total number of primitive shells          :   68
   total number of contracted shells         :  271
   total number of cartesian basis functions :  822
   total number of SCF-basis functions       :  723


 der. integral neglect threshold  :  0.10E-08
 integral neglect threshold       :  0.29E+02
 integral storage threshold THIZE :  0.10E-04
 integral storage threshold THIME :         5


 MAXIMUM CORE MEMORY WHICH CAN BE ALLOCATED DYNAMICALLY = 8000 MiB
              ( or 1048576000 double words )


              we will work with the 1s 3p 5d 7f 9g ... basis set
              ...i.e. with spherical basis functions...

   type   atoms  prim   cont   basis
   ---------------------------------------------------------------------------
    c       12     81     76   TZVPP   [8s6p4d3f1g|8s6p5d3f1g]
    h       14     30     30   TZVPP   [4s3p2d1f|4s3p2d1f]
    n        2     81     76   TZVPP   [8s6p4d3f1g|8s6p5d3f1g]
    o        3     81     76   TZVPP   [8s6p4d3f1g|8s6p5d3f1g]
   ---------------------------------------------------------------------------
   total:   31   1797   1712
   ---------------------------------------------------------------------------

   total number of primitive shells          :   79
   total number of contracted shells         :  514
   total number of cartesian basis functions : 2105
   total number of SCF-basis functions       : 1712


 symmetry group of the molecule :   c1 

 the group has the following generators :
   c1(z)

    1 symmetry operations found

 there are 1 real representations :   a   

 maximum number of shells which are related by symmetry :  1

  The symmetry information takes            1  MB

    mo occupation :
   irrep   mo's   occupied
    a      723       62
 
 number of basis functions   :          723
 number of occupied orbitals :           62
 
  MOs are in ASCII format !


 reading orbital data $scfmo  from file mos . 

 orbital characterization : scfconv=6
 

         --------------------------------------------------------------
                   checking mo's by calculating trace(D*S)

              number of electrons : 
                 from trace(D*S)         :  123.999999999947
                 from occupation numbers :  124.000000000000

              molecular charge           :    0.000000000000
         --------------------------------------------------------------

 time elapsed for calculating density matrices :   0.038 sec

 freezing orbitals : 
 frozen occupied orbitals:
     1 a     -20.615041 H
     2 a     -20.545587 H
     3 a     -20.498270 H
     4 a     -15.708237 H
     5 a     -15.591668 H
     6 a     -11.397491 H
     7 a     -11.336294 H
     8 a     -11.314552 H
     9 a     -11.268638 H
    10 a     -11.262245 H
    11 a     -11.258841 H
    12 a     -11.247076 H
    13 a     -11.244762 H
    14 a     -11.240971 H
    15 a     -11.232694 H
    16 a     -11.230914 H
    17 a     -11.220693 H

 number of non-frozen orbitals          :   706
 number of non-frozen occupied orbitals :    45
 
 
 ... and now freezing virtual orbitals leads to:
 
 FINALLY RESULTING NUMBER OF ORBITALS:
 frozen occupied orbitals:
     1 a     -20.615041 H
     2 a     -20.545587 H
     3 a     -20.498270 H
     4 a     -15.708237 H
     5 a     -15.591668 H
     6 a     -11.397491 H
     7 a     -11.336294 H
     8 a     -11.314552 H
     9 a     -11.268638 H
    10 a     -11.262245 H
    11 a     -11.258841 H
    12 a     -11.247076 H
    13 a     -11.244762 H
    14 a     -11.240971 H
    15 a     -11.232694 H
    16 a     -11.230914 H
    17 a     -11.220693 H
 
 number of orbitals                     :         723
 number of non-frozen orbitals          :         706
 number of virtual orbitals             :         661
 number of non-frozen virtual orbitals  :         661
 number of occupied orbitals            :          62
 number of non-frozen occupied orbitals :          45
 

 setting up bound for integral derivative estimation

 increment for numerical differentiation : 0.00050000

 biggest AO integral is expected to be     7.998976882
 biggest cartesian 1st derivative AO integral is expected to be    17.678530758
 total memory allocated for calculation of (Q|P)**(-1/2) : 39 MiB
         total  lpzwei  cpu-time :   0.07 seconds
         total  lpzwei wall-time :   0.07 seconds

  forming (P|Q)**(-1/2) 
 eigenvalues of original matrix 
 smallest =0.1414891501917E-06  largest = 32.41847811415    
         total  invsqm  cpu-time :   2.75 seconds
         total  invsqm wall-time :   2.75 seconds
         total  pqtrap  cpu-time :   0.03 seconds
         total  pqtrap wall-time :   0.22 seconds
 
 
 ------------------------------------------------------
            DETERMINATION OF MO-BLOCKS
 ------------------------------------------------------
 

 occupied MOs partitioned into blocks of maximum length 44
 this requires 7745 MB core memory.
 
            MULTIPLE PASS Statistics 
 ----------------------------------------------------
  pass       irrep     lambda      batch : MO  to  MO
 ----------------------------------------------------
   1       1  ->  1   18  -> 61            18  ->  61
   2       1  ->  1   62  -> 62            62  ->  62


 **************************************************************
 RESULTING NUMBER OF INTEGRAL AND DERIVATIVE EVALUATIONS   2
 **************************************************************
 
    virtual/general MULTIPLE PASS Statistics 
 ----------------------------------------------------
  pass     typ     irrep      lambda     batch : MO  to  MO
         1=frz.occ.
         2=act.occ.
         3=act.vrt.
         4=frz.vrt.
 ----------------------------------------------------
   1      1->1    1  ->  1    1  -> 10             1  ->  10
   2      1->2    1  ->  1   11  -> 20            11  ->  20
   3      2->2    1  ->  1   21  -> 30            21  ->  30
   4      2->2    1  ->  1   31  -> 40            31  ->  40
   5      2->2    1  ->  1   41  -> 50            41  ->  50
   6      2->2    1  ->  1   51  -> 60            51  ->  60
   7      2->3    1  ->  1   61  -> 70            61  ->  70
   8      3->3    1  ->  1   71  -> 80            71  ->  80
   9      3->3    1  ->  1   81  -> 90            81  ->  90
  10      3->3    1  ->  1   91  ->100            91  -> 100
  11      3->3    1  ->  1  101  ->110           101  -> 110
  12      3->3    1  ->  1  111  ->120           111  -> 120
  13      3->3    1  ->  1  121  ->130           121  -> 130
  14      3->3    1  ->  1  131  ->140           131  -> 140
  15      3->3    1  ->  1  141  ->150           141  -> 150
  16      3->3    1  ->  1  151  ->160           151  -> 160
  17      3->3    1  ->  1  161  ->170           161  -> 170
  18      3->3    1  ->  1  171  ->180           171  -> 180
  19      3->3    1  ->  1  181  ->190           181  -> 190
  20      3->3    1  ->  1  191  ->200           191  -> 200
  21      3->3    1  ->  1  201  ->210           201  -> 210
  22      3->3    1  ->  1  211  ->220           211  -> 220
  23      3->3    1  ->  1  221  ->230           221  -> 230
  24      3->3    1  ->  1  231  ->240           231  -> 240
  25      3->3    1  ->  1  241  ->250           241  -> 250
  26      3->3    1  ->  1  251  ->260           251  -> 260
  27      3->3    1  ->  1  261  ->270           261  -> 270
  28      3->3    1  ->  1  271  ->280           271  -> 280
  29      3->3    1  ->  1  281  ->290           281  -> 290
  30      3->3    1  ->  1  291  ->300           291  -> 300
  31      3->3    1  ->  1  301  ->310           301  -> 310
  32      3->3    1  ->  1  311  ->320           311  -> 320
  33      3->3    1  ->  1  321  ->330           321  -> 330
  34      3->3    1  ->  1  331  ->340           331  -> 340
  35      3->3    1  ->  1  341  ->350           341  -> 350
  36      3->3    1  ->  1  351  ->360           351  -> 360
  37      3->3    1  ->  1  361  ->370           361  -> 370
  38      3->3    1  ->  1  371  ->380           371  -> 380
  39      3->3    1  ->  1  381  ->390           381  -> 390
  40      3->3    1  ->  1  391  ->400           391  -> 400
  41      3->3    1  ->  1  401  ->410           401  -> 410
  42      3->3    1  ->  1  411  ->420           411  -> 420
  43      3->3    1  ->  1  421  ->430           421  -> 430
  44      3->3    1  ->  1  431  ->440           431  -> 440
  45      3->3    1  ->  1  441  ->450           441  -> 450
  46      3->3    1  ->  1  451  ->460           451  -> 460
  47      3->3    1  ->  1  461  ->470           461  -> 470
  48      3->3    1  ->  1  471  ->480           471  -> 480
  49      3->3    1  ->  1  481  ->490           481  -> 490
  50      3->3    1  ->  1  491  ->500           491  -> 500
  51      3->3    1  ->  1  501  ->510           501  -> 510
  52      3->3    1  ->  1  511  ->520           511  -> 520
  53      3->3    1  ->  1  521  ->530           521  -> 530
  54      3->3    1  ->  1  531  ->540           531  -> 540
  55      3->3    1  ->  1  541  ->550           541  -> 550
  56      3->3    1  ->  1  551  ->560           551  -> 560
  57      3->3    1  ->  1  561  ->570           561  -> 570
  58      3->3    1  ->  1  571  ->580           571  -> 580
  59      3->3    1  ->  1  581  ->590           581  -> 590
  60      3->3    1  ->  1  591  ->600           591  -> 600
  61      3->3    1  ->  1  601  ->610           601  -> 610
  62      3->3    1  ->  1  611  ->620           611  -> 620
  63      3->3    1  ->  1  621  ->630           621  -> 630
  64      3->3    1  ->  1  631  ->640           631  -> 640
  65      3->3    1  ->  1  641  ->650           641  -> 650
  66      3->3    1  ->  1  651  ->660           651  -> 660
  67      3->3    1  ->  1  661  ->670           661  -> 670
  68      3->3    1  ->  1  671  ->680           671  -> 680
  69      3->3    1  ->  1  681  ->690           681  -> 690
  70      3->3    1  ->  1  691  ->700           691  -> 700
  71      3->3    1  ->  1  701  ->710           701  -> 710
  72      3->3    1  ->  1  711  ->720           711  -> 720
  73      3->3    1  ->  1  721  ->723           721  -> 723


 **************************************************************
 RESULTING NUMBER OF BLOCKS OF VIRTUAL/GENERAL ORBITALS   73
 **************************************************************

 basis functions will be partitioned into   2 blocks
 of maximum length  672 which takes 7988 MByte of memory
 the individual blocks of basis functions are given below 
 ---------------------------------------------------------- 
 block index|first shell|first basis function|block length 
 ---------------------------------------------------------- 
        1           1             1                  672
        2         257           673                  150
 ---------------------------------------------------------- 

 
 
 ------------------------------------------------------
           calculation of (ti|Q)(Q|P)**(-1/2)
 ------------------------------------------------------
 total memory allocated for calculation of (ti|Q)(Q|P)**(-1/2) :  911 MByte

 record length scale factor =        8

 starting loop   1 of direct evaluation of B(ti|P)
 starting loop   2 of direct evaluation of B(ti|P)
         total  lp3mp2  cpu-time :  26.11 seconds
         total  lp3mp2 wall-time :  26.18 seconds
         total  trdrei  cpu-time :  30.46 seconds
         total  trdrei wall-time :  30.84 seconds
         total  trifro  cpu-time :  12.59 seconds
         total  mkbaoi  cpu-time :  56.59 seconds
         total  mkbaoi wall-time :  57.03 seconds
 
 
 -----------------------------------------------------
              n**5-steps following now
 -----------------------------------------------------
 
 memory allocated for pij:         2026 real(kdp) words

 energy threshold for MO-block-neighbourships:  0.10E-02

 total memory allocated for N**5 steps : 7744 MiB

 this includes:       436921 real(8) words for pab
                    49791808 real(8) words for bai
                    49791808 real(8) words for yai
                    19224524 real(8) words for riajb
                   845879056 real(8) words for tiajb
                    49791808 real(8) words for bbj
                           1 real(8) words for bgi
                       29084 real(8) words for symscr
                         723 real(8) words for symin1

         total   n5grd cpu-time :  5 minutes and  5 seconds
         total  n5grd wall-time :  5 minutes and  5 seconds
  in detail: 
         total   (ia|jb) cpu-time :  2 minutes and  8 seconds
         total  (ia|jb) wall-time :  2 minutes and  9 seconds
         total   (ia|jb)/eig cpu-time :   3.01 seconds
         total  (ia|jb)/eig wall-time :   3.01 seconds
         total   P(ij) cpu-time :   8.45 seconds
         total  P(ij) wall-time :   8.46 seconds
         total   Y(ia) cpu-time :  2 minutes and  7 seconds
         total  Y(ia) wall-time :  2 minutes and  8 seconds
         total   P(ab) cpu-time :  37.63 seconds
         total  P(ab) wall-time :  37.72 seconds
  in addition: 
         total   mkqat cpu-time :   3.17 seconds
         total  mkqat wall-time :   3.22 seconds
         total   mkxpvi cpu-time :  29.78 seconds
         total  mkxpvi wall-time :  30.05 seconds

 traces of occ/occ and virt/virt relaxed densities
 are       -1.9519724818
 and        1.9519724818
 relative checksum error: 0.785D-13

             *****************************************************
             *                                                   *
             *      SCF-energy   :    -796.25195669180005        *
             *      MP2-energy   :      -3.06855527860623        *
             *      total        :    -799.32051197040630        *
             *                                                   *
             *     (MP2-energy evaluated from T2 amplitudes)     *
             *                                                   *
             *****************************************************

         total  galoop  cpu-time :  5 minutes and 39 seconds
         total  galoop wall-time :  5 minutes and 40 seconds
 
 -----------------------------------------------------
        calculate contribution of GAMMA*(Q|P)
 -----------------------------------------------------
 
 total memory allocated for gadlp2 :  117 MByte
  the gradients... :
-0.1010931598445D-01 0.1359273206704D-01-0.5877153277707D-02
 0.2708021270004D-01-0.4251820779093D-02-0.1232340743767D-01
 0.8372444486438D-02-0.1907847561265D-01 0.2016584302207D-01
 0.4792145219468D-01-0.3510999856709D-01 0.7759296627101D-01
-0.1241430706714D-01 0.2975897118058D-01-0.5367024844774D-01
 0.1271939979850D-01 0.1608055130695D-01-0.2951834570464D-01
 0.3609847681345D-01 0.7747034844962D-01 0.7157517527097D-01
-0.1220224417723D-01 0.1305315782685D-02-0.3143581978475D-01
-0.1422553037767D-01-0.5816974726953D-02-0.3251801407931D-01
-0.5089889691132D-01-0.2651299805932D-01-0.3408011669214D-01
 0.7423882929504D-01 0.3740316654284D-02 0.9676625064614D-02
 0.1978248113999D-01 0.2423033938165D-02 0.3360066892815D-01
-0.5309671615030D-01-0.1727482850544D-02-0.8043193741986D-01
-0.6927310386434D-01-0.6105299431673D-02-0.1490405589778D-01
-0.2370551065099D-01-0.2997991597232D-01 0.3093577166906D-01
 0.2147235350746D-01-0.6695333148184D-02 0.9096601173133D-02
 0.1176134079428D-01 0.5561074763755D-01-0.2025928861493D-01
-0.1091794683892D-01-0.4578902052945D-02-0.3956682052075D-01
-0.3648073006871D-01-0.4719514297854D-01 0.4431834929154D-01
 0.2075591723554D-01-0.8284176787096D-02 0.2447244189718D-01
 0.3811777446149D-01-0.3055985332169D-01-0.1223723789347D-01
-0.1629179912142D-01-0.2581367402470D-01-0.8114786696968D-02
-0.6404013429713D-02 0.1005868600358D-01 0.7564077856641D-02
 0.2973056241422D-02 0.8917318885955D-02 0.2302344382966D-01
-0.1822568107216D-01-0.1851943890066D-01-0.2004034952230D-02
-0.2911710845011D-01 0.7148603433327D-01-0.5816124074310D-02
-0.1388074916765D-01 0.5268532013386D-01-0.3458466693550D-01
 0.3798504695330D-01-0.1131207260803D+00 0.3627383154693D-01
 0.3313304885635D-02 0.2364404251566D-01 0.1115096628722D-01
 0.2322657383340D-01-0.7874092364289D-03 0.3305746492023D-01
-0.8575011008558D-02 0.1736420364102D-01-0.1516216859867D-01
         total  gadlp2  cpu-time :   0.93 seconds
         total  gadlp2 wall-time :   0.93 seconds
 
 -----------------------------------------------------
        calculate contribution of GAMMA*(nm|P)
 -----------------------------------------------------
 
 total memory allocated for processing of irreducible MP2 two-electron density : 7611 MByte

 checksums for xpni before and after d.a. i/o: 
 rel. ||delta xpni||= 0.460D-11
 in galoop: 0.7878300290177D+02
 in gamder: 0.7878300290213D+02

         total  gamder  cpu-time :  1 minutes and  5 seconds
         total  gamder wall-time :  1 minutes and  6 seconds
  the gradients... :
-0.4507756770419D-03-0.8157700165935D-02 0.3252927127051D-02
-0.4909613190941D-02 0.1608863189355D-02 0.4899801285263D-02
-0.2901071415618D-02 0.4937088887389D-02-0.7294423872535D-02
-0.7044817400144D-02 0.7547714950357D-02-0.2438137287662D-01
-0.2191468000803D-01-0.2276825533011D-01 0.1989491187050D-01
 0.4029425328983D-02-0.6696714837002D-03 0.6995332965423D-02
-0.1057529375921D-01 0.5750812875774D-05-0.4142331920429D-01
 0.9451103196971D-02-0.8347559180434D-02 0.1777496449256D-01
 0.1429037145214D-02 0.6741080834672D-02 0.2471590736592D-02
 0.4113611061979D-02 0.1532980134214D-01-0.5356179741846D-02
-0.7113581593882D-02-0.1099359501601D-01 0.3484549843199D-02
 0.5214652401935D-02-0.1168889043056D-01 0.2019470989048D-01
 0.1393273297592D-01 0.9595359496333D-03 0.2446452521351D-01
 0.5613374544098D-02 0.6474381778483D-02-0.3000238666152D-01
 0.4765144815524D-02 0.9977111168453D-02-0.3086877217483D-02
 0.3895012033983D-02 0.7363555389756D-02 0.1059433357565D-01
 0.1373005188377D-02-0.7517003867196D-02 0.2195331810088D-02
 0.9992556112234D-03-0.1869205733435D-03 0.8399318983829D-02
 0.7310117698236D-02 0.3922055902346D-02-0.1484110489184D-01
-0.3969319616119D-02 0.2101436571415D-02-0.3054077904676D-02
-0.1690006866053D-01 0.1505413824120D-01 0.5996116640346D-02
 0.2238250871546D-02 0.3632906683203D-02 0.6567394104176D-03
 0.1416324915482D-03-0.6212471949072D-02-0.1134716105551D-02
-0.3245913595943D-02 0.9857339584119D-04-0.3888688461181D-02
 0.5737148159462D-02 0.4367337890655D-02-0.4252599771202D-03
 0.1335481193301D-01-0.2781012826050D-01 0.3148464794240D-03
 0.6618698681195D-02-0.2180951971996D-01 0.1297949969261D-01
-0.1388483362616D-01 0.4398867296443D-01-0.1383123224681D-01
 0.3522556591337D-02-0.3259583934501D-02-0.5201473835329D-03
-0.4643699530493D-02 0.2868402315030D-03 0.3488049833147D-03
 0.3814097343567D-02-0.4975546272385D-02 0.4321481544745D-02
 echeck from tr(Qit)
 mp2 energy difference between galoop and gamder= 0.3641531520771D-13
 
 -----------------------------------------------------
     prepare right hand side of z-vector equations
 -----------------------------------------------------
 
 total memory allocated for eval. of r.h.s. of z-vector equation :   14 MByte
         total  zprep  cpu-time :  4 minutes and 34 seconds
         total  zprep wall-time :  4 minutes and 34 seconds
 additional memory allocated for solution of z-vector equation :   21 MByte

          -------------------------------------------------
          -CPHF- contribution to MP2-Gradient via Z-vector 
          -------------------------------------------------

   Requested convergence is     0.1000000000E-12  RMS 
     and a residual norm of     0.1000000000E-03

      Iteration           RMS                   |R|

           1        0.1987228573E-05      0.2853779973E+00
           2        0.4542748174E-06      0.1364444596E+00
           3        0.1004929643E-06      0.6417478213E-01
           4        0.1329875670E-07      0.2334544168E-01
           5        0.3759673677E-08      0.1241285409E-01
           6        0.6479105393E-09      0.5152928267E-02
           7        0.7104076864E-10      0.1706280393E-02
           8        0.1163103343E-10      0.6904078591E-03
           9        0.1270222056E-11      0.2281583667E-03
          10        0.2066772644E-12      0.9203286179E-04
          11        0.3670379139E-13      0.3878395001E-04

 *** the iterative expansion of z(ai) converged after  11 iterations ***
         total  rzvect  cpu-time : 41 minutes and 12 seconds
         total  rzvect wall-time : 41 minutes and 18 seconds
 
 MAXIMUM CHANGE IN ORBITAL OCCUPATION (FROM MP2 DENSITY MATRIX): 13.19%
 
         total  mp2den  cpu-time :   0.34 seconds
         total  mp2den wall-time :   0.37 seconds
 
 
 
 ==============================================================================
                           electrostatic moments
 ==============================================================================
 
              nuc          SCF,e       -> SCF,tot          MP2       ->  total
 ------------------------------------------------------------------------------
                          charge      
 ------------------------------------------------------------------------------
         124.000000    -124.000000       0.000000      -0.000000       0.000000
 
 ------------------------------------------------------------------------------
                       dipole moment  
 ------------------------------------------------------------------------------
   x     -20.206634      19.963551      -0.243082       0.446245       0.203162
   y     -10.965117      10.147848      -0.817269       0.468794      -0.348475
   z     -49.285172      49.838243       0.553070      -0.431531       0.121539
 
   | dipole moment | =     0.4213 a.u. =     1.0708 debye 
 
 ------------------------------------------------------------------------------
                     quadrupole moment
 ------------------------------------------------------------------------------
  xx    2824.139741   -2887.838628     -63.698887      -2.213074     -65.911961
  yy     834.143590    -901.746070     -67.602480      -3.134331     -70.736811
  zz    1933.134724   -2011.281872     -78.147148       2.290418     -75.856730
  xy     958.015663    -952.035873       5.979790      -1.139411       4.840379
  xz   -1480.990424    1473.726583      -7.263841       1.423126      -5.840715
  yz    -339.277550     344.368740       5.091190      -1.156979       3.934211
 
     1/3  trace=     -70.835167
     anisotropy=      17.124815
 
 ==============================================================================
 

 2e-integral 1st. derivatives will be neglected if expon. factor < 0.100000E-08
 outer boundary for 2e-integral derivative neglection is 0.100000E-08

         total  twogrd  cpu-time : 16 minutes and 15 seconds
         total  twogrd wall-time : 16 minutes and 17 seconds

 1e-integral 1st. derivatives will be neglected if expon. factor < 0.100000E-12

         total  onegrd  cpu-time :   1.17 seconds
         total  onegrd wall-time :   1.17 seconds
 
                  ------------------------------
                   total gradient of MP2-energy
                  ------------------------------

          ------------------------------------------------
           cartesian gradient of the energy (hartree/bohr)
          ------------------------------------------------

  ATOM      1 c           2 h           3 h           4 c           5 c 
dE/dx -0.3836579D-02  0.5753545D-02  0.1064083D-03  0.1269914D-01  0.3610785D-01
dE/dy  0.9934119D-02 -0.2580864D-02 -0.8099832D-03  0.1596530D-01  0.1959697D-01
dE/dz -0.1710197D-03 -0.2455886D-05 -0.6516304D-02  0.5010949D-03  0.8773765D-02

  ATOM      6 h           7 c           8 n           9 h          10 c 
dE/dx -0.1106084D-01 -0.6683990D-02 -0.1713583D-02 -0.1146095D-01  0.5566934D-02
dE/dy -0.3714367D-02 -0.3572824D-01  0.8434030D-02 -0.1216072D-01 -0.1020282D-01
dE/dz -0.1318725D-01  0.2057293D-01 -0.1302254D-01 -0.1945070D-01  0.3474934D-01

  ATOM     11 c          12 c          13 o          14 c          15 h 
dE/dx -0.4822915D-01  0.1480758D-01 -0.1988324D-01  0.2161505D-01 -0.1473412D-03
dE/dy -0.1957628D-01  0.2966145D-01 -0.7262896D-03 -0.4664189D-02  0.1443269D-01
dE/dz -0.4079490D-02 -0.5201725D-02 -0.2653069D-01  0.2486855D-01 -0.3519755D-01

  ATOM     16 c          17 n          18 h          19 c          20 h 
dE/dx -0.3332235D-02  0.5676904D-02  0.2098799D-02  0.2896208D-03  0.7941874D-02
dE/dy  0.9922985D-02 -0.4419931D-02 -0.6495723D-02  0.2745189D-01 -0.8280209D-02
dE/dz  0.9970798D-02  0.4732700D-01 -0.2977940D-01 -0.3967079D-02  0.5348810D-02

  ATOM     21 h          22 h          23 c          24 h          25 h 
dE/dx  0.2837735D-01 -0.1795022D-01 -0.2706685D-01 -0.2224635D-02 -0.8283248D-02
dE/dy -0.2341790D-01 -0.3257870D-01  0.1264298D-01  0.5617283D-02 -0.7397871D-02
dE/dz -0.9930300D-02  0.2911399D-05  0.2247438D-01  0.8885496D-02 -0.2489233D-02

  ATOM     26 c          27 o          28 o          29 h          30 h 
dE/dx  0.2473214D-01 -0.1537375D-01  0.2954007D-02  0.6448341D-02  0.6345637D-02
dE/dy  0.1695119D-01  0.4607901D-02 -0.1254040D-01  0.6669985D-02  0.1232659D-02
dE/dz -0.9778893D-02  0.4919595D-03 -0.6978612D-02  0.3328688D-02  0.9497728D-04

  ATOM     31 h 
dE/dx -0.4274576D-02
dE/dy  0.2173037D-02
dE/dz -0.1107454D-02
 
 resulting FORCE  (fx,fy,fz) = (-.577D-10,-.449D-10,-.161D-10)
 resulting MOMENT (mx,my,mz) = (-.618D-07,-.157D-06,0.400D-07)


 **********************************************************************
  |maximum component of gradient| : 0.48229151E-01  (atom 11 c )       
   gradient norm                  : 0.15701801    
 **********************************************************************

 <getgrd> : data group $grad  is missing 

   ***  cartesian gradients written onto <gradient>  ***
 could not remove file twoint


    ------------------------------------------------------------------------
         total  cpu-time :  1 hours  9 minutes and 48 seconds
         total wall-time :  1 hours  9 minutes and 59 seconds
    ------------------------------------------------------------------------


   ****  rimp2 : all done  ****


    2016-07-27 11:33:26.847 

